# vtk DataFile Version 3.0
Unstructured Grid for Triangles
ASCII
DATASET UNSTRUCTURED_GRID
POINTS 29612 DOUBLE
-2.72397e-05 1.23686e-06 0
-2.95789e-05 9.5838e-07 0
-2.77865e-05 -3.1235e-07 0
0.0002024 5e-05 0
0.000203975 4.9875e-05 0
0.000205 5e-05 0
0.000203975 -4.9875e-05 0
0.0002024 -5e-05 0
0.000205 -5e-05 0
0.00020295 4.975e-05 0
0.00020295 -4.975e-05 0
0.000201925 4.9625e-05 0
0.000201925 -4.9625e-05 0
-5.29747e-05 -4.79887e-05 0
-5.5e-05 -5e-05 0
-5.24e-05 -5e-05 0
-5.05983e-05 -4.84325e-05 0
-4.98e-05 -5e-05 0
-4.72e-05 -5e-05 0
-4.83864e-05 -4.87761e-05 0
-4.46e-05 -5e-05 0
-4.59e-05 -4.84239e-05 0
-4.29453e-05 -4.24878e-05 0
-4.47486e-05 -4.20717e-05 0
-4.41829e-05 -4.36609e-05 0
-5.12578e-05 -4.62101e-05 0
-4.93077e-05 -4.53594e-05 0
-5.0706e-05 -4.39006e-05 0
-4.19243e-05 -4.77545e-05 0
-4.40307e-05 -4.71837e-05 0
-4.3691e-05 -4.86724e-05 0
-5.16129e-05 -4.20948e-05 0
-4.95355e-05 -4.15432e-05 0
-5.11646e-05 -4.0128e-05 0
-3.94697e-05 -4.81197e-05 0
-4.06302e-05 -4.55143e-05 0
-5.37257e-05 -3.88197e-05 0
-5.31099e-05 -4.07297e-05 0
-5.23982e-05 -3.88328e-05 0
-3.70063e-05 -4.72956e-05 0
-3.68e-05 -5e-05 0
-3.5308e-05 -4.85302e-05 0
-5.072e-05 -3.7867e-05 0
-4.85506e-05 -3.83975e-05 0
-4.90949e-05 -3.59622e-05 0
-3.37127e-05 -4.84331e-05 0
-3.16e-05 -5e-05 0
-3.26495e-05 -4.7415e-05 0
-5.5e-05 -3.5e-05 0
-5.31201e-05 -3.70361e-05 0
-5.28367e-05 -3.46817e-05 0
-3.63898e-05 -4.48809e-05 0
-3.83315e-05 -4.60336e-05 0
-3.26269e-06 -4.15503e-05 0
-5.99662e-06 -4.09556e-05 0
-5.46944e-06 -4.29488e-05 0
-5.29747e-05 4.79887e-05 0
-5.5e-05 5e-05 0
-5.5e-05 4.75e-05 0
-5.5e-05 4.5e-05 0
-5.34834e-05 4.29171e-05 0
-5.26943e-05 4.42611e-05 0
-5.34026e-05 4.60176e-05 0
-5.31099e-05 4.07297e-05 0
-5.11672e-05 4.01178e-05 0
-5.16129e-05 4.20948e-05 0
-5.24e-05 5e-05 0
-5.05983e-05 4.84325e-05 0
-5.31201e-05 3.70361e-05 0
-5.072e-05 3.7867e-05 0
-5.23982e-05 3.88328e-05 0
-4.8341e-05 4.69132e-05 0
-4.83679e-05 4.87539e-05 0
-5.28367e-05 3.46817e-05 0
-5.5e-05 3.25e-05 0
-5.25657e-05 3.28474e-05 0
-4.98e-05 5e-05 0
-5.30382e-05 3.125e-05 0
-4.19243e-05 4.77545e-05 0
-4.40015e-05 4.7335e-05 0
-4.25917e-05 4.63678e-05 0
-4.35138e-05 2.62661e-05 0
-4.14982e-05 2.74462e-05 0
-4.35654e-05 2.85217e-05 0
-4.59e-05 4.84239e-05 0
-4.36852e-05 4.87027e-05 0
-4.46e-05 5e-05 0
-5.33308e-05 2.92503e-05 0
-5.5e-05 2.75e-05 0
-5.23377e-05 2.76953e-05 0
-4.25282e-05 4.46352e-05 0
-4.09368e-05 4.35728e-05 0
-4.06302e-05 4.55143e-05 0
0.0002009 4.95e-05 0
0.0001998 5e-05 0
0.000199875 4.9375e-05 0
0.00019885 4.925e-05 0
0.0001972 5e-05 0
0.000197825 4.9125e-05 0
0.0001968 4.9e-05 0
0.000195775 4.8875e-05 0
0.0001946 5e-05 0
0.00019475 4.875e-05 0
0.000193725 4.8625e-05 0
0.000192 5e-05 0
0.0001927 4.85e-05 0
0.000191675 4.8375e-05 0
0.00019065 4.825e-05 0
0.0001894 5e-05 0
0.000189625 4.8125e-05 0
0.0001886 4.8e-05 0
0.0001868 5e-05 0
0.000187575 4.7875e-05 0
0.00018655 4.775e-05 0
0.000185515 4.8575e-05 0
0.0001842 5e-05 0
0.0001845 4.75e-05 0
0.000185525 4.7625e-05 0
0.000182564 4.829e-05 0
0.0001816 5e-05 0
0.00018245 4.725e-05 0
0.000183475 4.7375e-05 0
0.000181425 4.7125e-05 0
0.000180295 4.82657e-05 0
0.000179 5e-05 0
0.000179375 4.6875e-05 0
0.0001804 4.7e-05 0
0.000178168 4.80619e-05 0
0.0001764 5e-05 0
0.000177325 4.6625e-05 0
0.00017835 4.675e-05 0
0.000176428 4.76631e-05 0
0.0001763 4.65e-05 0
0.0001738 5e-05 0
0.0001751 4.84164e-05 0
0.000175275 4.6375e-05 0
0.000174025 4.75632e-05 0
0.0001712 5e-05 0
0.000172615 4.78449e-05 0
0.0001722 4.6e-05 0
0.000173225 4.6125e-05 0
0.00017015 4.575e-05 0
0.000171243 4.7381e-05 0
0.000169554 4.79999e-05 0
0.0001686 5e-05 0
0.000167507 4.79751e-05 0
0.000168498 4.64861e-05 0
0.000166 5e-05 0
0.00016558 4.71459e-05 0
0.000167135 4.62887e-05 0
0.0001681 4.55e-05 0
0.00016605 4.525e-05 0
0.000167075 4.5375e-05 0
0.000164059 4.61599e-05 0
0.00016394 4.79552e-05 0
0.000162881 4.6615e-05 0
0.000162975 4.4875e-05 0
0.000165025 4.5125e-05 0
0.000164 4.5e-05 0
0.000161754 4.58641e-05 0
0.000161722 4.78101e-05 0
0.000159956 4.58294e-05 0
0.000160925 4.4625e-05 0
0.00016195 4.475e-05 0
0.000157667 4.60322e-05 0
0.000158875 4.4375e-05 0
0.000159194 4.80155e-05 0
0.0001599 4.45e-05 0
0.00015785 4.425e-05 0
0.000155808 4.56757e-05 0
0.000155647 4.76701e-05 0
0.000154059 4.66642e-05 0
0.000153756 4.50083e-05 0
0.000154839 4.50446e-05 0
0.000156825 4.4125e-05 0
0.000151954 4.80508e-05 0
0.000154052 4.8477e-05 0
0.000153 5e-05 0
0.000154775 4.3875e-05 0
0.000152142 4.56625e-05 0
0.000152821 4.45753e-05 0
0.00015375 4.375e-05 0
0.0001504 5e-05 0
0.000149644 4.85168e-05 0
0.000151787 4.43178e-05 0
0.000152725 4.3625e-05 0
0.000150675 4.3375e-05 0
0.0001517 4.35e-05 0
0.000148119 4.50887e-05 0
0.000148072 4.75757e-05 0
0.000146584 4.63516e-05 0
0.000150008 4.6396e-05 0
0.000149351 4.4543e-05 0
0.00015061 4.46252e-05 0
0.0001476 4.3e-05 0
0.000148625 4.3125e-05 0
0.000146492 4.82975e-05 0
0.000144888 4.73562e-05 0
0.000146676 4.44259e-05 0
0.000145255 4.53656e-05 0
0.000145652 4.38669e-05 0
0.000141401 4.79821e-05 0
0.0001426 5e-05 0
0.00014 5e-05 0
0.000144374 4.38862e-05 0
0.00014555 4.275e-05 0
0.0001435 4.25e-05 0
0.000144525 4.2625e-05 0
0.000142746 4.38121e-05 0
0.000141288 4.43191e-05 0
0.000141707 4.32778e-05 0
0.00013921 4.38992e-05 0
0.000140355 4.5932e-05 0
0.000138302 4.5922e-05 0
0.000142912 4.58869e-05 0
0.000140592 4.30037e-05 0
0.00014145 4.225e-05 0
0.000136458 4.5869e-05 0
0.000137106 4.4063e-05 0
0.0001394 4.2e-05 0
0.000138259 4.28915e-05 0
0.000137484 4.77094e-05 0
0.000139166 4.78902e-05 0
0.00013586 4.78984e-05 0
0.000133449 4.78649e-05 0
0.000134717 4.61848e-05 0
0.000137256 4.25134e-05 0
0.000135323 4.24541e-05 0
0.000136325 4.1625e-05 0
0.000136122 4.2876e-05 0
0.000131206 4.47284e-05 0
0.000133168 4.56738e-05 0
0.000131773 4.65243e-05 0
0.000134756 4.40343e-05 0
0.000132747 4.36463e-05 0
0.000133483 4.26786e-05 0
0.000131081 4.1867e-05 0
0.000132382 4.22815e-05 0
0.000131507 4.3122e-05 0
0.000131059 4.80123e-05 0
0.00013325 4.125e-05 0
0.00012915 4.075e-05 0
0.00012982 4.18199e-05 0
0.000128915 4.26216e-05 0
0.000126366 4.47574e-05 0
0.000127331 4.30908e-05 0
0.000128781 4.44872e-05 0
0.000125336 4.28376e-05 0
0.000130218 4.31077e-05 0
0.000127894 4.16344e-05 0
0.000124774 4.69608e-05 0
0.000127668 4.64148e-05 0
0.000126591 4.8331e-05 0
0.000126722 4.18415e-05 0
0.000125768 4.11931e-05 0
0.000124326 4.13546e-05 0
0.00012505 4.025e-05 0
0.000122408 4.50118e-05 0
0.000120276 4.47432e-05 0
0.00012139 4.32235e-05 0
0.000124336 4.44132e-05 0
0.000123056 4.27595e-05 0
0.000122977 4.09049e-05 0
0.00012185 4.69217e-05 0
0.000122676 4.85947e-05 0
0.000120525 4.86094e-05 0
0.000121479 4.13153e-05 0
0.000119547 4.24221e-05 0
0.000120249 4.07448e-05 0
0.000119925 3.9625e-05 0
0.000119346 4.06114e-05 0
0.000117479 4.47279e-05 0
0.000114726 4.45259e-05 0
0.00011571 4.27814e-05 0
0.000119443 4.66611e-05 0
0.000117447 4.21596e-05 0
0.000118421 4.0752e-05 0
0.000117409 4.04437e-05 0
0.000116775 4.70073e-05 0
0.0001179 4.855e-05 0
0.000115473 4.84802e-05 0
0.00011685 3.925e-05 0
0.000117875 3.9375e-05 0
0.000115454 4.00551e-05 0
0.0001148 3.9e-05 0
0.000115825 3.9125e-05 0
0.000111704 4.23398e-05 0
0.000113786 4.26731e-05 0
0.000112589 4.43871e-05 0
0.000113234 4.06671e-05 0
0.000114754 4.13371e-05 0
0.0001106 4.42326e-05 0
0.000109703 4.24261e-05 0
0.00011275 3.875e-05 0
0.000113775 3.8875e-05 0
0.000110211 4.80875e-05 0
0.000108244 4.71951e-05 0
0.000109312 4.58413e-05 0
0.000111755 3.99116e-05 0
0.00010944 3.92972e-05 0
0.000110415 4.05876e-05 0
0.000108839 4.07536e-05 0
0.000106472 4.76905e-05 0
0.000107274 4.57868e-05 0
0.000108011 3.92415e-05 0
0.000106885 4.04365e-05 0
0.000106625 3.88708e-05 0
0.000105286 4.19254e-05 0
0.000105055 3.95469e-05 0
0.000104215 4.39764e-05 0
0.000106346 4.40629e-05 0
0.000100945 4.51249e-05 0
0.000102825 4.5614e-05 0
0.000101189 4.68452e-05 0
0.000107625 3.8125e-05 0
0.000105575 3.7875e-05 0
0.0001066 3.8e-05 0
0.000103352 4.76905e-05 0
0.000101803 4.8465e-05 0
0.000103685 3.89398e-05 0
0.00010245 3.8825e-05 0
0.000103525 3.7625e-05 0
0.000101092 3.99779e-05 0
0.000101267 3.82619e-05 0
0.000101382 4.2025e-05 0
0.000103187 4.05286e-05 0
0.000103359 4.24605e-05 0
9.87383e-05 4.5447e-05 0
9.99411e-05 4.35161e-05 0
9.744e-05 4.33145e-05 0
0.00010045 3.725e-05 0
0.000101475 3.7375e-05 0
9.70845e-05 4.65215e-05 0
9.52614e-05 4.67664e-05 0
9.61768e-05 4.49944e-05 0
9.9729e-05 3.87704e-05 0
9.78901e-05 3.9598e-05 0
9.85823e-05 3.81492e-05 0
9.62289e-05 3.93709e-05 0
9.74259e-05 3.81279e-05 0
9.7375e-05 3.6875e-05 0
9.63045e-05 3.76631e-05 0
9.58e-05 5e-05 0
9.32e-05 5e-05 0
9.47542e-05 4.8457e-05 0
9.49675e-05 3.85246e-05 0
9.36214e-05 3.89472e-05 0
9.40006e-05 3.74906e-05 0
9.66411e-05 4.12573e-05 0
9.44241e-05 4.07079e-05 0
9.03569e-05 4.24993e-05 0
9.21701e-05 4.02409e-05 0
9.27439e-05 4.27744e-05 0
8.89795e-05 4.09067e-05 0
9.03071e-05 4.0248e-05 0
9.25447e-05 3.77721e-05 0
9.3275e-05 3.6375e-05 0
9.07708e-05 3.87127e-05 0
9.11303e-05 3.70839e-05 0
9.11933e-05 4.55145e-05 0
9.30678e-05 4.73279e-05 0
9.11886e-05 4.82603e-05 0
8.87724e-05 3.88076e-05 0
8.99595e-05 3.75116e-05 0
9.02e-05 3.6e-05 0
8.89241e-05 3.6954e-05 0
8.36977e-05 4.59472e-05 0
8.36223e-05 4.83578e-05 0
8.20467e-05 4.74142e-05 0
8.71227e-05 4.03557e-05 0
8.61e-05 3.55e-05 0
8.68368e-05 3.65714e-05 0
8.5484e-05 3.6588e-05 0
8.47735e-05 4.02845e-05 0
8.23121e-05 4.21599e-05 0
8.26582e-05 3.98147e-05 0
8.46943e-05 4.2454e-05 0
8.38832e-05 3.78613e-05 0
8.35569e-05 3.63808e-05 0
8.44098e-05 3.6291e-05 0
8.5075e-05 3.5375e-05 0
8.51465e-05 4.77163e-05 0
8.3025e-05 3.5125e-05 0
8.22824e-05 3.68659e-05 0
8.1446e-05 3.57362e-05 0
8.05884e-05 3.71794e-05 0
7.53471e-05 4.77524e-05 0
7.38313e-05 4.73927e-05 0
7.39102e-05 4.61526e-05 0
7.9826e-05 3.58588e-05 0
7.88607e-05 3.76287e-05 0
7.81733e-05 3.57987e-05 0
8.16783e-05 3.84471e-05 0
8.07975e-05 4.04095e-05 0
7.52138e-05 4.04775e-05 0
7.67682e-05 4.17043e-05 0
7.49617e-05 4.21803e-05 0
7.52903e-05 3.84008e-05 0
7.38293e-05 3.93136e-05 0
[...]
CELL_DATA 58684
VECTORS velocity DOUBLE
73.9765 0.33733 0
85.5638 -0.000107616 0
85.5384 0.000200735 0
85.5664 0.000467857 0
85.5394 -0.000932322 0
85.5724 -0.00219114 0
85.5456 0.00247391 0
77.8575 -0.00310231 0
77.8619 -0.0232978 0
77.9316 -0.00430165 0
78.0198 -0.00731493 0
78.066 -0.407185 0
77.8787 -0.109803 0
78.1373 -0.134221 0
77.8632 -0.185837 0
78.3086 -0.172192 0
77.8575 -0.111484 0
78.6274 -0.156807 0
77.8949 -0.317438 0
79.097 -0.114161 0
77.8722 -0.113384 0
78.6025 -0.367207 0
84.8603 -2.16458 0
77.8537 0.0115262 0
77.8485 0.0511829 0
77.8537 0.024996 0
77.867 0.140508 0
77.8615 0.0223431 0
77.8674 0.188827 0
77.9309 0.0494323 0
77.868 0.144726 0
77.8973 0.0319643 0
77.8288 0.145188 0
78.1982 0.163639 0
77.9189 1.12946 0
78.0754 0.0675737 0
77.881 0.176008 0
78.2637 0.35443 0
85.5744 -0.0023729 0
85.5774 -0.000317596 0
85.5857 -0.00314918 0
85.5876 -0.00457677 0
85.5905 -0.000457364 0
85.5977 -0.00328901 0
85.6001 -0.00616056 0
85.6015 -0.00473294 0
85.6047 -0.000537724 0
85.6113 -0.00610851 0
85.6122 -0.00624883 0
85.6142 -0.000513905 0
85.6224 -0.00654213 0
85.6233 -0.00840009 0
85.6245 -0.00614724 0
85.6272 -0.000796284 0
85.6331 -0.0079934 0
85.6337 -0.0072595 0
85.6354 -0.000785549 0
85.6443 -0.00998441 0
85.6449 -0.0108174 0
85.646 -0.00675116 0
85.6502 -0.000489452 0
85.6546 -0.0134287 0
85.658 -0.00924146 0
85.6658 -0.000975645 0
85.6687 -0.0152112 0
85.6693 -0.0147649 0
85.6733 -0.0103808 0
85.6778 -0.000768161 0
85.6807 -0.0166384 0
85.6848 -0.0109783 0
85.6893 -0.000673205 0
85.6937 -0.0187454 0
85.6977 -0.0140744 0
85.7047 -0.0215642 0
85.7063 -0.000600106 0
85.7116 -0.0162499 0
85.7153 -0.0102482 0
85.7224 -0.00125477 0
85.7272 -0.0231873 0
85.7428 -0.017595 0
85.7297 -0.0189409 0
85.7428 -0.00146027 0
85.7501 -0.012599 0
85.7456 -0.0234992 0
85.7697 -0.0156206 0
85.7642 -0.0204159 0
85.7642 -0.0270994 0
85.7743 -0.0340248 0
85.7915 -0.0214985 0
85.8051 -0.0298124 0
85.7842 -0.0261083 0
85.7986 -0.0380182 0
85.8127 -0.0297714 0
85.8112 -0.0287463 0
85.819 -0.0400809 0
85.8465 -0.0358072 0
85.8294 -0.0324437 0
85.8392 -0.0430869 0
85.8569 -0.0489302 0
85.8599 -0.0363414 0
85.885 -0.0458625 0
85.8638 -0.039559 0
85.887 -0.0150812 0
85.8901 -0.0496433 0
85.9088 -0.0463094 0
85.9015 -0.0519079 0
85.91 -0.0137583 0
85.9155 -0.0550052 0
85.9313 -0.0620843 0
85.9484 -0.0350156 0
85.9445 -0.0372648 0
85.9302 -0.0511726 0
85.9639 -0.0668011 0
85.9625 -0.0279577 0
85.9943 -0.0602933 0
85.9798 -0.0391028 0
86.0151 -0.00189988 0
86.0028 -0.0678366 0
86.0182 -0.0801014 0
86.0513 -0.0694162 0
86.0711 -0.0536305 0
86.0251 -0.0425909 0
86.0604 -0.0799717 0
86.0981 -0.0543066 0
86.0923 -0.084606 0
86.0686 -0.0311674 0
86.1045 -0.0757771 0
86.1221 -0.027742 0
86.1196 -0.0890507 0
86.1486 -0.103394 0
86.1858 -0.0621746 0
86.1767 -0.0859886 0
86.15 -0.0398043 0
86.2184 -0.112327 0
86.1627 -0.0313565 0
86.1956 -0.11134 0
86.2652 -0.124527 0
86.2815 -0.0874774 0
86.2993 -0.110266 0
86.2548 -0.104731 0
86.2825 -0.113983 0
86.25 -0.0512832 0
86.3291 -0.132093 0
86.3561 -0.144921 0
86.3948 -0.0963737 0
86.311 -0.0716107 0
86.3509 -0.124583 0
86.3743 -0.14845 0
86.3382 -0.0291997 0
86.449 -0.157731 0
86.4631 -0.176468 0
86.5111 -0.108386 0
86.4163 -0.097675 0
86.4787 -0.148627 0
86.5019 -0.176567 0
86.4425 -0.030874 0
86.5212 -0.204703 0
86.5755 -0.219952 0
86.595 -0.156508 0
86.5877 -0.179833 0
86.6471 -0.165393 0
86.6206 -0.228074 0
86.6295 -0.0601283 0
86.6322 -0.214085 0
86.7125 -0.218456 0
86.6902 -0.070667 0
86.7856 -0.260387 0
86.816 -0.240519 0
86.7974 -0.151406 0
86.8704 -0.117239 0
86.7897 -0.265752 0
86.8307 -0.293996 0
86.8392 -0.0602936 0
86.9107 -0.295854 0
86.9658 -0.305141 0
86.8801 -0.219105 0
86.9539 -0.135405 0
86.9952 -0.183542 0
86.999 -0.349637 0
87.0491 -0.117843 0
87.0713 -0.324323 0
87.1068 -0.318558 0
87.1339 -0.373146 0
87.0873 -0.00343493 0
87.2439 -0.371695 0
87.119 -0.286775 0
87.2539 -0.258126 0
87.331 -0.301908 0
87.2962 -0.410461 0
87.3591 -0.41514 0
87.2157 -0.0930121 0
87.4001 -0.401107 0
87.4301 -0.464194 0
87.4447 -0.446991 0
87.5525 -0.102513 0
87.429 -0.354456 0
87.6126 -0.511858 0
87.6683 -0.387713 0
87.5831 -0.325816 0
87.6773 -0.54101 0
87.6614 -0.53452 0
87.5391 -0.0915924 0
87.7739 -0.593103 0
87.8136 -0.555425 0
88.0102 -0.105615 0
87.9207 -0.609921 0
87.7547 -0.425978 0
88.0279 -0.3871 0
88.0965 -0.499036 0
87.9793 -0.552947 0
88.0077 -0.658358 0
88.0702 -0.236176 0
88.1923 -0.630525 0
88.1456 -0.731198 0
88.349 -0.737543 0
88.3019 -0.00977692 0
88.2962 -0.609346 0
88.3635 -0.762847 0
88.19 -0.189201 0
88.4318 -0.802746 0
88.5274 -0.459057 0
88.4804 -0.839812 0
88.6999 -0.254909 0
88.6601 -0.716389 0
88.6261 -0.846487 0
88.5563 -0.1314 0
88.7766 -0.871742 0
88.9682 -0.845494 0
88.8014 -0.72473 0
88.8488 -0.433896 0
89.0051 -0.973165 0
89.0098 -0.379166 0
89.1788 -0.0648286 0
88.9438 -0.762766 0
89.1291 -0.958733 0
89.222 -1.03218 0
89.2466 -0.319445 0
89.3721 -0.884555 0
89.5385 -0.966159 0
89.3279 -0.109126 0
89.6935 -0.935312 0
89.6055 -1.04966 0
89.4528 -0.778257 0
89.5168 -0.372785 0
89.6362 -0.43396 0
89.7684 -1.04973 0
89.6982 -0.00502525 0
89.8812 -1.12011 0
90.0234 -1.05669 0
89.9774 -1.11576 0
89.9519 -0.23771 0
90.0879 -0.904354 0
90.3517 -0.90828 0
89.9265 -0.00311653 0
90.4463 -1.08275 0
90.6311 -0.911427 0
90.2615 -0.662901 0
90.0852 -0.27063 0
90.6272 -1.03293 0
90.2541 -0.333902 0
90.0776 -0.0133565 0
90.5548 -0.686047 0
90.8998 -0.928231 0
91.0711 -0.860893 0
90.254 -0.0614333 0
91.0224 -0.575043 0
91.163 -0.762368 0
90.128 0.03848 0
91.308 -0.745264 0
91.5006 -0.610616 0
91.1177 -0.191692 0
89.9008 0.0116919 0
91.6633 -0.380635 0
90.8002 0.230299 0
91.0371 0.343568 0
91.536 -0.233031 0
91.3141 0.0218053 0
92.002 0.0132846 0
90.031 0.388345 0
91.9855 -0.0890523 0
91.5413 0.472693 0
92.195 0.559729 0
89.9439 0.114291 0
92.1566 1.25939 0
91.9316 1.48622 0
88.6165 0.199958 0
92.3801 0.956513 0
92.2844 1.42951 0
89.9574 1.50397 0
89.7011 0.720063 0
91.2237 1.15824 0
92.1873 1.9602 0
88.8635 0.334047 0
91.7051 2.84467 0
92.366 2.20667 0
92.3806 2.4326 0
88.1257 1.42387 0
90.7408 2.96255 0
91.7633 3.23174 0
88.1047 0.235661 0
91.5817 3.73069 0
91.2368 3.6018 0
90.2916 5.21637 0
85.8754 0.397089 0
91.4108 4.92546 0
89.441 3.55143 0
87.5959 1.5718 0
87.2258 2.9916 0
91.1826 5.42761 0
90.0664 5.86535 0
86.3076 0.610555 0
90.1354 6.68924 0
85.5476 0.00228342 0
85.5502 0.000315006 0
85.5573 0.00257853 0
85.5589 0.00430497 0
85.5613 0.000425588 0
85.5683 0.0031298 0
85.5703 0.00579673 0
85.5716 0.00464114 0
85.5748 0.000533025 0
85.5809 0.0055754 0
85.5818 0.00546566 0
85.5832 0.000483794 0
85.591 0.00624552 0
85.5918 0.008033 0
85.5929 0.00587675 0
85.5954 0.000775933 0
85.6012 0.00799117 0
85.6019 0.00735053 0
85.6036 0.000778761 0
85.6123 0.0097215 0
85.6129 0.0106173 0
85.6217 0.0134417 0
85.6141 0.00659779 0
85.6259 0.00793537 0
85.6339 0.0130284 0
85.6259 0.00938936 0
85.6378 0.0146653 0
85.6417 0.0104069 0
85.6486 0.0165429 0
85.6395 0.00924565 0
85.6531 0.0112806 0
85.6616 0.0187893 0
85.6533 0.0093981 0
85.6737 0.0219342 0
85.6747 0.0214796 0
85.679 0.0152798 0
85.6677 0.011114 0
85.6806 0.0166063 0
85.6933 0.0154352 0
85.6844 0.0105212 0
85.7062 0.0282248 0
85.7028 0.011797 0
85.7129 0.0179303 0
85.7015 0.0144964 0
85.7159 0.0238866 0
85.7352 0.0274453 0
85.74 0.0159723 0
85.7311 0.0256702 0
85.7498 0.0290495 0
85.7518 0.0336376 0
85.7692 0.0162784 0
85.7626 0.0217381 0
85.7762 0.0301086 0
85.7896 0.0426985 0
85.7928 0.0202725 0
85.7992 0.0323444 0
85.8091 0.0451112 0
85.8179 0.0259746 0
85.8003 0.0325555 0
85.8292 0.0496493 0
85.8302 0.0486716 0
85.8361 0.0305744 0
85.8469 0.0217923 0
85.8572 0.0457653 0
85.8043 0.0136899 0
85.8741 0.0522526 0
85.9044 0.0633345 0
85.8874 0.0534899 0
85.872 0.0311348 0
85.9155 0.0643237 0
85.9225 0.0558541 0
85.9378 0.0281618 0
85.9045 0.0521915 0
85.9442 0.059459 0
85.9607 0.0684053 0
85.9107 0.0161391 0
85.9489 0.0494349 0
85.9942 0.0800859 0
85.9574 0.0402299 0
86.0049 0.0688877 0
86.0355 0.0843559 0
86.0094 0.0620612 0
86.0286 0.0251674 0
86.0447 0.0746577 0
86.0628 0.0854404 0
86.0435 0.0214544 0
86.0878 0.0948823 0
86.0518 0.0701405 0
86.1088 0.077578 0
86.069 0.0541516 0
86.1222 0.103586 0
86.1823 0.124828 0
86.1393 0.03118 0
86.1384 0.0856223 0
86.21 0.132316 0
86.1848 0.0953618 0
86.1272 0.039019 0
86.2261 0.124383 0
86.2493 0.130523 0
86.2071 0.0323309 0
86.2522 0.0565326 0
86.2825 0.114253 0
86.3013 0.15261 0
86.2284 0.0809307 0
86.333 0.146096 0
86.3561 0.158539 0
86.3595 0.0528163 0
86.3336 0.0959012 0
86.4068 0.177338 0
86.4015 0.150996 0
86.2976 0.0495536 0
86.4272 0.169833 0
86.4786 0.181681 0
86.4539 0.0711534 0
86.4437 0.156178 0
86.5416 0.216631 0
86.5264 0.166814 0
86.3952 0.0537699 0
86.5667 0.202249 0
86.64 0.247004 0
86.5176 0.070313 0
86.6255 0.196446 0
86.6044 0.0909415 0
86.6713 0.206209 0
86.5808 0.117541 0
86.7045 0.26121 0
86.7662 0.260831 0
86.6671 0.0712609 0
86.7552 0.255653 0
86.8393 0.294903 0
86.7955 0.0748738 0
86.7232 0.21604 0
86.8293 0.251752 0
86.8918 0.297507 0
86.7676 0.0462589 0
86.904 0.271275 0
87.0143 0.352795 0
86.9925 0.29534 0
86.9265 0.0890272 0
87.0727 0.30856 0
86.8736 0.114945 0
86.9067 0.261212 0
87.0616 0.341799 0
87.1797 0.385662 0
87.191 0.395583 0
86.8941 0.00642506 0
87.2966 0.450378 0
87.31 0.437751 0
87.3377 0.386338 0
87.2688 0.18944 0
87.3831 0.203354 0
87.3537 0.432089 0
87.1068 0.117538 0
87.4853 0.484723 0
87.4754 0.477489 0
87.4842 0.42923 0
87.3696 0.124446 0
87.5712 0.474893 0
87.7067 0.593093 0
87.554 0.222517 0
87.4955 0.235453 0
87.6634 0.479824 0
87.8406 0.612949 0
87.4076 0.146267 0
87.8834 0.649431 0
87.9262 0.630118 0
87.7273 0.123096 0
88.0779 0.720409 0
88.1144 0.689853 0
88.1894 0.593236 0
87.9529 0.26123 0
87.9194 0.295622 0
88.0975 0.666235 0
87.8134 0.192362 0
88.2771 0.793536 0
88.335 0.746342 0
88.335 0.687692 0
88.0497 0.104273 0
88.5223 0.80843 0
88.5422 0.825472 0
88.3695 0.462841 0
88.6434 0.649055 0
88.3892 0.376335 0
88.6018 0.790823 0
88.2665 0.238575 0
88.7716 0.918264 0
88.7997 0.88591 0
88.3112 0.191209 0
88.8745 0.815507 0
89.0724 0.935997 0
88.9773 0.916676 0
88.8539 0.213257 0
89.2964 0.975704 0
89.3442 1.04288 0
88.805 0.634614 0
89.2285 0.772538 0
88.8696 0.386201 0
89.5521 1.094 0
89.0606 0.119065 0
89.6207 1.06023 0
89.6154 1.00225 0
88.8662 0.0951885 0
89.5434 0.907901 0
89.9588 1.06691 0
90.0567 1.07364 0
89.4899 0.270389 0
90.1358 1.04409 0
90.1875 1.11392 0
89.4641 0.683734 0
90.1984 0.727706 0
89.661 0.260463 0
90.3635 1.10744 0
89.6914 0.0953828 0
90.5185 1.02784 0
90.6127 1.00926 0
89.5064 0.0700698 0
90.4276 0.833944 0
90.9177 0.929736 0
91.0876 0.863576 0
89.974 0.164081 0
90.9182 0.807855 0
91.2341 0.808858 0
90.5256 0.705923 0
91.0233 0.385956 0
90.0694 0.0990184 0
90.9948 0.724298 0
90.0934 0.0346983 0
91.49 0.696618 0
91.5812 0.548051 0
89.9781 0.0370267 0
91.2844 0.244865 0
91.7402 0.259606 0
91.9351 0.122308 0
90.1252 -0.10561 0
92.0302 -0.084744 0
92.0785 -0.220039 0
90.2835 -0.288909 0
92.0955 -0.253312 0
91.3006 -0.683817 0
90.5397 -0.116464 0
90.3388 -0.0156286 0
92.2371 -0.547588 0
92.0015 -0.935847 0
92.4341 -1.12098 0
90.0165 -0.0082483 0
91.7216 -1.38018 0
92.4434 -1.85535 0
89.9894 -0.130968 0
91.5532 -1.34416 0
92.4251 -2.39337 0
91.0105 -1.80374 0
89.9807 -0.675076 0
92.2384 -2.73862 0
92.103 -3.0293 0
90.9528 -1.15088 0
90.4358 -3.17583 0
88.4392 -2.60624 0
91.7489 -3.05911 0
88.8221 -0.41256 0
91.7413 -4.00976 0
89.2274 7.28112 0
89.9448 6.51575 0
84.6471 1.92411 0
89.1274 7.23598 0
86.9257 6.61652 0
88.4757 7.86303 0
85.2216 0.757724 0
87.5129 8.06139 0
86.3615 7.9302 0
84.0076 0.960803 0
86.4307 8.45556 0
91.6565 -4.42479 0
89.0571 -0.255699 0
91.3965 -4.7662 0
90.1775 -5.154 0
89.6256 -4.43897 0
88.1967 -0.271148 0
90.4174 -5.74376 0
85.1577 7.72035 0
89.7787 -7.01075 0
87.9605 -1.40621 0
89.4617 -6.77553 0
88.6112 -7.73284 0
82.8818 2.35762 0
88.1822 -7.58673 0
89.366 -4.2494 0
88.668 -6.87819 0
86.8362 -5.08888 0
85.9039 -0.838346 0
87.7451 -6.9805 0
86.9681 -7.38488 0
84.5408 8.14617 0
87.0357 -7.3979 0
86.7185 -0.456038 0
86.0253 -7.74418 0
85.5173 -8.44621 0
85.2419 -0.56409 0
84.4464 -8.58605 0
84.9514 -6.30563 0
83.1332 -0.653715 0
83.4487 -8.7362 0
83.5391 -4.84491 0
85.2101 -3.82171 0
83.9926 -7.48121 0
82.9027 -7.82755 0
85.5204 4.38468 0
82.0057 0.529284 0
84.9394 2.93174 0
83.6292 -0.0759242 0
82.3586 -8.48962 0
84.1735 7.71563 0
81.7415 0.383288 0
83.6197 6.56213 0
81.5086 -8.3531 0
83.2111 -1.70941 0
80.8354 -6.09761 0
83.5969 8.79173 0
80.6625 2.01631 0
83.4998 8.71689 0
81.3385 7.26567 0
80.9454 0.410094 0
81.9471 7.64221 0
81.4273 -6.34607 0
82.7391 -0.470679 0
80.6691 -8.48032 0
80.6911 -8.24738 0
82.311 8.20722 0
80.4274 7.82193 0
80.2814 0.0424307 0
81.4648 8.07657 0
79.6786 5.05781 0
80.2719 2.27705 0
79.7614 -8.42804 0
80.7316 -1.09161 0
80.0919 -8.30275 0
79.3053 8.27129 0
79.1528 -7.69982 0
79.8948 -1.07341 0
79.5113 -3.38529 0
77.9117 -7.39496 0
80.9295 -4.09118 0
77.7757 -7.15298 0
79.4196 -0.290503 0
76.8716 -6.83302 0
79.0753 2.85411 0
79.6774 0.459996 0
78.8975 6.94607 0
79.1035 0.118073 0
78.6808 8.14888 0
78.408 7.64635 0
78.8036 0.186112 0
77.6696 6.69248 0
78.6013 0.133727 0
78.2562 -6.39322 0
79.4167 -0.574376 0
79.4711 6.02013 0
77.8436 0.732685 0
77.2301 6.28378 0
76.7616 -6.79321 0
79.5281 -0.228252 0
75.1516 -5.81004 0
77.8472 -0.440636 0
75.9747 -5.71775 0
78.3776 2.54073 0
77.8508 0.121124 0
78.9842 -5.20255 0
77.8517 -0.112853 0
75.284 -5.38266 0
76.6523 5.66962 0
76.704 -4.24756 0
77.8564 -0.240166 0
75.6012 -4.61141 0
77.729 3.13135 0
75.5975 1.98614 0
76.1688 4.90312 0
77.5553 -0.981774 0
75.4365 -5.10916 0
77.7871 0.402433 0
76.0632 6.61582 0
77.5314 -2.36958 0
77.8534 -0.0838748 0
75.1145 -4.60979 0
75.803 5.90999 0
77.7827 0.715921 0
75.7828 4.61973 0
75.4996 4.55864 0
77.7792 0.382064 0
74.7121 4.06118 0
74.2582 -4.13874 0
77.8186 -0.293787 0
73.9585 -4.13195 0
76.3888 -1.96739 0
77.8397 -0.1993 0
73.3421 -2.81668 0
74.761 5.0517 0
77.7003 0.618025 0
76.041 3.23713 0
73.9597 -2.55773 0
77.7134 -0.312552 0
73.3068 -2.32991 0
73.6565 3.71733 0
77.7214 0.263402 0
74.0623 3.50126 0
74.3685 2.85619 0
77.8501 0.0338459 0
73.5282 3.04249 0
74.6727 -1.50644 0
77.6395 -0.538015 0
73.9539 -1.32807 0
72.7669 -0.84465 0
76.9212 -0.920094 0
72.8175 -0.7154 0
76.6131 0.956831 0
77.7665 0.0800505 0
75.6591 2.42198 0
73.3105 2.45082 0
77.6092 0.0588484 0
72.8886 1.54801 0
77.2981 -0.234203 0
77.8306 -0.112909 0
72.8165 -0.235123 0
73.3467 -0.0922784 0
77.7891 -0.0658057 0
75.5989 0.306167 0
73.5147 0.524285 0
77.8088 -0.0616715 0
76.8778 -5.63223 0
77.8737 -0.431437 0
77.8336 0.134038 0
77.6769 6.85257 0
78.5993 -7.7051 0
81.6514 -0.940516 0
80.1166 0.99309 0
81.2269 8.58005 0
77.7693 0.279992 0
74.2103 4.83369 0
73.7076 -2.82463 0
77.7927 -0.203307 0
77.8178 -0.573446 0
77.2955 -3.65301 0
77.862 0.800307 0
77.8907 0.197286 0
77.7768 -8.75395e-05 0
73.3852 2.04571 0
79.0607 0.464567 0
78.2039 1.5702 0
78.5129 -1.37035 0
79.9397 -0.687831 0
85.3289 -1.26927 0
84.9163 -8.43276 0
86.779 8.05476 0
84.8758 0.468456 0
77.5823 1.65854 0
79.2253 7.96601 0
78.1844 -7.04959 0
78.9869 -2.30696 0
76.719 -1.45605 0
74.3585 -0.21814 0
75.8432 5.80451 0
77.8914 1.88323 0
77.7365 -1.78515 0
74.4837 -4.61487 0
91.1519 -5.40015 0
87.8906 -0.663209 0
87.4788 0.793934 0
91.5825 4.50972 0
77.8566 -0.813768 0
77.8629 -0.0431101 0
77.8452 0.148754 0
78.7361 0.753456 0
82.6816 0.735701 0
82.3141 4.09241 0
80.8391 -1.98298 0
83.8391 -1.74041 0
81.254 4.87926 0
84.106 8.27728 0
82.9524 -8.65193 0
82.1357 -1.9143 0
86.0786 1.60885 0
87.153 5.02128 0
85.7371 -2.78664 0
86.8527 -0.0439216 0
89.9416 -0.259849 0
92.3997 -1.36717 0
92.2293 0.572253 0
89.1619 0.0303956 0
90.0639 0.00105612 0
91.6253 0.527567 0
91.4009 -0.516436 0
90.2284 0.0473562 0
78.7861 -1.44228 0
78.2921 -0.572328 0
78.1945 1.23373 0
78.9505 0.945037 0
78.0527 1.22136 0
77.8557 0.237916 0
77.849 -0.107953 0
77.9929 -1.12224 0
88.8712 0.961217 0
90.0929 1.903 0
89.1866 -1.15658 0
89.3751 -0.173428 0
75.7357 -0.95733 0
77.8063 -0.155038 0
77.3464 -0.439517 0
77.8144 -0.371679 0
77.8269 0.206687 0
77.7565 0.966506 0
90.6909 0.952385 0
89.8351 0.149125 0
90.007 -0.0022512 0
90.4073 -1.03827 0
81.2922 -0.0411696 0
80.5502 -2.81486 0
81.5774 1.79869 0
80.3345 0.447309 0
77.5379 4.02721 0
76.9634 7.28782 0
76.7361 -6.23434 0
78.0286 -3.21281 0
78.5473 -2.10272 0
77.3149 -2.22415 0
77.6105 4.62115 0
77.994 2.21893 0
90.2392 0.060047 0
89.9886 0.148022 0
90.155 -0.0552756 0
91.1262 0.0605431 0
79.3864 -5.40314 0
80.4502 -5.24203 0
80.0606 4.62434 0
80.5343 8.49939 0
78.7717 -3.96529 0
79.9324 -2.30736 0
79.7619 3.10796 0
78.9992 1.53041 0
89.8872 1.13698 0
89.3061 0.138597 0
89.5619 -0.00907888 0
89.4451 -1.02548 0
77.1414 1.00952 0
77.8234 0.0311513 0
90.0762 -0.0509111 0
90.7346 -0.325376 0
90.4392 0.229082 0
89.8938 0.0358738 0
78.6135 -0.952648 0
78.1701 -1.32705 0
78.8847 1.73507 0
78.0866 0.735432 0
77.8688 -0.146296 0
78.0282 -0.69531 0
77.8952 0.315079 0
77.8456 0.136412 0
73.828 1.70738 0
76.7481 1.51979 0
86.4825 -3.14983 0
89.7711 -6.35832 0
90.716 5.82003 0
86.1963 2.27536 0
76.5617 -2.30119 0
74.4573 -2.8879 0
88.5798 0.155565 0
88.8681 0.882655 0
87.8196 0.0765654 0
88.4862 0.847658 0
88.8833 -0.862016 0
88.7198 -0.13948 0
88.2254 -0.710262 0
88.1468 -0.0121923 0
89.736 -0.209432 0
89.8474 -0.607231 0
89.6916 0.382437 0
89.4391 0.00600357 0
77.8258 0.180326 0
77.5786 0.536116 0
76.2466 0.45246 0
73.9267 0.842902 0
77.725 -0.246899 0
77.8143 -0.170716 0
77.2401 0.275719 0
77.1482 -0.745019 0
92.2379 -2.79344 0
89.1207 -1.7633 0
90.0934 2.24395 0
92.3888 1.66623 0
77.9413 -0.0646094 0
78.0149 -0.366666 0
77.8629 0.0502517 0
78.1662 0.260023 0
89.0974 -0.203025 0
89.1136 -0.529841 0
89.1452 0.353055 0
88.7273 0.114232 0
87.6144 0.169923 0
87.8102 0.537525 0
87.8286 -0.629504 0
87.716 -0.153274 0
78.2952 -0.896618 0
79.1144 -2.12376 0
78.5955 1.6068 0
78.2639 1.26949 0
78.8687 2.86971 0
77.3797 1.84429 0
77.9227 -1.91654 0
78.5157 -2.78069 0
90.6115 -0.559506 0
91.5522 0.250568 0
91.7255 -0.240162 0
91.0342 0.606199 0
77.543 -1.14256 0
77.6469 -1.35945 0
77.6956 1.07784 0
77.1571 1.29971 0
87.6187 0.560193 0
87.3021 0.168621 0
87.3707 -0.103711 0
87.5499 -0.47721 0
84.6402 4.25714 0
86.5995 7.11458 0
86.0944 -8.3743 0
85.6563 -3.34099 0
74.9294 -3.40853 0
77.2683 -3.50033 0
84.272 -3.05398 0
84.8935 -1.09475 0
83.3006 0.451473 0
86.5231 3.10749 0
74.5013 4.6047 0
76.4694 2.72155 0
88.4094 -0.0512943 0
88.5893 -0.545099 0
88.4662 0.362803 0
88.3714 0.0996328 0
88.3116 -0.370991 0
88.1034 -1.52101 0
88.6492 2.09798 0
87.6841 0.273159 0
82.691 1.39107 0
81.0157 0.348832 0
82.0948 -0.332988 0
82.7222 -3.10114 0
90.3952 0.301254 0
90.6778 0.821848 0
90.841 -0.896184 0
90.7486 -0.0279421 0
81.7455 -3.81878 0
82.8124 -1.83245 0
82.0544 2.70082 0
84.5251 5.96991 0
87.1657 0.342329 0
87.0331 0.0650164 0
87.2319 -0.102405 0
87.1472 -0.35749 0
87.8342 -0.188176 0
88.0191 -0.00763781 0
87.9887 0.102155 0
87.7964 0.441571 0
79.6323 0.494167 0
79.4008 1.29714 0
79.643 -1.14401 0
80.4457 -0.314941 0
81.0715 2.81453 0
79.5396 1.94208 0
78.929 -2.82398 0
78.1402 -2.84844 0
89.9811 -0.494645 0
89.7345 -0.284485 0
89.563 0.383136 0
90.4817 0.648598 0
79.4942 3.83153 0
80.0053 2.55698 0
79.0459 -0.821123 0
78.8929 -0.291083 0
78.7492 0.264214 0
79.4042 0.886287 0
76.3653 -0.870067 0
77.3699 -1.34163 0
91.6177 -3.6855 0
89.1773 -2.08263 0
88.6608 3.7626 0
92.0038 3.75288 0
77.7932 -0.864285 0
77.8681 -0.140296 0
77.8005 0.200802 0
77.867 0.841262 0
78.1074 0.0877286 0
78.1197 0.622235 0
78.2556 -0.344361 0
78.3854 -0.0206473 0
75.1878 -0.266308 0
72.8329 0.150865 0
84.6399 3.2137 0
88.6117 2.98436 0
87.3288 -2.51571 0
87.9275 -4.97375 0
77.3813 2.05735 0
76.9662 1.14441 0
77.852 -0.0246065 0
77.5792 -0.0480913 0
79.9822 6.80486 0
77.9939 4.03875 0
79.6757 -4.28172 0
78.6476 -8.06762 0
77.2413 0.784263 0
77.7123 0.424452 0
89.727 0.509155 0
90.0876 1.11309 0
89.768 -1.02156 0
89.7105 -0.196331 0
87.3889 -0.124408 0
87.6254 -0.0833652 0
87.5962 0.0714126 0
87.4703 0.414295 0
92.1273 0.485407 0
91.0005 1.4134 0
91.0323 -0.588565 0