# vtk DataFile Version 3.0
Unstructured Grid for Triangles
ASCII
DATASET UNSTRUCTURED_GRID
POINTS 29612 DOUBLE
-2.72397e-05 1.23686e-06 0
-2.95789e-05 9.5838e-07 0
-2.77865e-05 -3.1235e-07 0
0.0002024 5e-05 0
0.000203975 4.9875e-05 0
0.000205 5e-05 0
0.000203975 -4.9875e-05 0
0.0002024 -5e-05 0
0.000205 -5e-05 0
0.00020295 4.975e-05 0
0.00020295 -4.975e-05 0
0.000201925 4.9625e-05 0
0.000201925 -4.9625e-05 0
-5.29747e-05 -4.79887e-05 0
-5.5e-05 -5e-05 0
-5.24e-05 -5e-05 0
-5.05983e-05 -4.84325e-05 0
-4.98e-05 -5e-05 0
-4.72e-05 -5e-05 0
-4.83864e-05 -4.87761e-05 0
-4.46e-05 -5e-05 0
-4.59e-05 -4.84239e-05 0
-4.29453e-05 -4.24878e-05 0
-4.47486e-05 -4.20717e-05 0
-4.41829e-05 -4.36609e-05 0
-5.12578e-05 -4.62101e-05 0
-4.93077e-05 -4.53594e-05 0
-5.0706e-05 -4.39006e-05 0
-4.19243e-05 -4.77545e-05 0
-4.40307e-05 -4.71837e-05 0
-4.3691e-05 -4.86724e-05 0
-5.16129e-05 -4.20948e-05 0
-4.95355e-05 -4.15432e-05 0
-5.11646e-05 -4.0128e-05 0
-3.94697e-05 -4.81197e-05 0
-4.06302e-05 -4.55143e-05 0
-5.37257e-05 -3.88197e-05 0
-5.31099e-05 -4.07297e-05 0
-5.23982e-05 -3.88328e-05 0
-3.70063e-05 -4.72956e-05 0
-3.68e-05 -5e-05 0
-3.5308e-05 -4.85302e-05 0
-5.072e-05 -3.7867e-05 0
-4.85506e-05 -3.83975e-05 0
-4.90949e-05 -3.59622e-05 0
-3.37127e-05 -4.84331e-05 0
-3.16e-05 -5e-05 0
-3.26495e-05 -4.7415e-05 0
-5.5e-05 -3.5e-05 0
-5.31201e-05 -3.70361e-05 0
-5.28367e-05 -3.46817e-05 0
-3.63898e-05 -4.48809e-05 0
-3.83315e-05 -4.60336e-05 0
-3.26269e-06 -4.15503e-05 0
-5.99662e-06 -4.09556e-05 0
-5.46944e-06 -4.29488e-05 0
-5.29747e-05 4.79887e-05 0
-5.5e-05 5e-05 0
-5.5e-05 4.75e-05 0
-5.5e-05 4.5e-05 0
-5.34834e-05 4.29171e-05 0
-5.26943e-05 4.42611e-05 0
-5.34026e-05 4.60176e-05 0
-5.31099e-05 4.07297e-05 0
-5.11672e-05 4.01178e-05 0
-5.16129e-05 4.20948e-05 0
-5.24e-05 5e-05 0
-5.05983e-05 4.84325e-05 0
-5.31201e-05 3.70361e-05 0
-5.072e-05 3.7867e-05 0
-5.23982e-05 3.88328e-05 0
-4.8341e-05 4.69132e-05 0
-4.83679e-05 4.87539e-05 0
-5.28367e-05 3.46817e-05 0
-5.5e-05 3.25e-05 0
-5.25657e-05 3.28474e-05 0
-4.98e-05 5e-05 0
-5.30382e-05 3.125e-05 0
-4.19243e-05 4.77545e-05 0
-4.40015e-05 4.7335e-05 0
-4.25917e-05 4.63678e-05 0
-4.35138e-05 2.62661e-05 0
-4.14982e-05 2.74462e-05 0
-4.35654e-05 2.85217e-05 0
-4.59e-05 4.84239e-05 0
-4.36852e-05 4.87027e-05 0
-4.46e-05 5e-05 0
-5.33308e-05 2.92503e-05 0
-5.5e-05 2.75e-05 0
-5.23377e-05 2.76953e-05 0
-4.25282e-05 4.46352e-05 0
-4.09368e-05 4.35728e-05 0
-4.06302e-05 4.55143e-05 0
0.0002009 4.95e-05 0
0.0001998 5e-05 0
0.000199875 4.9375e-05 0
0.00019885 4.925e-05 0
0.0001972 5e-05 0
0.000197825 4.9125e-05 0
0.0001968 4.9e-05 0
0.000195775 4.8875e-05 0
0.0001946 5e-05 0
0.00019475 4.875e-05 0
0.000193725 4.8625e-05 0
0.000192 5e-05 0
0.0001927 4.85e-05 0
0.000191675 4.8375e-05 0
0.00019065 4.825e-05 0
0.0001894 5e-05 0
0.000189625 4.8125e-05 0
0.0001886 4.8e-05 0
0.0001868 5e-05 0
0.000187575 4.7875e-05 0
0.00018655 4.775e-05 0
0.000185515 4.8575e-05 0
0.0001842 5e-05 0
0.0001845 4.75e-05 0
0.000185525 4.7625e-05 0
0.000182564 4.829e-05 0
0.0001816 5e-05 0
0.00018245 4.725e-05 0
0.000183475 4.7375e-05 0
0.000181425 4.7125e-05 0
0.000180295 4.82657e-05 0
0.000179 5e-05 0
0.000179375 4.6875e-05 0
0.0001804 4.7e-05 0
0.000178168 4.80619e-05 0
0.0001764 5e-05 0
0.000177325 4.6625e-05 0
0.00017835 4.675e-05 0
0.000176428 4.76631e-05 0
0.0001763 4.65e-05 0
0.0001738 5e-05 0
0.0001751 4.84164e-05 0
0.000175275 4.6375e-05 0
0.000174025 4.75632e-05 0
0.0001712 5e-05 0
0.000172615 4.78449e-05 0
0.0001722 4.6e-05 0
0.000173225 4.6125e-05 0
0.00017015 4.575e-05 0
0.000171243 4.7381e-05 0
0.000169554 4.79999e-05 0
0.0001686 5e-05 0
0.000167507 4.79751e-05 0
0.000168498 4.64861e-05 0
0.000166 5e-05 0
0.00016558 4.71459e-05 0
0.000167135 4.62887e-05 0
0.0001681 4.55e-05 0
0.00016605 4.525e-05 0
0.000167075 4.5375e-05 0
0.000164059 4.61599e-05 0
0.00016394 4.79552e-05 0
0.000162881 4.6615e-05 0
0.000162975 4.4875e-05 0
0.000165025 4.5125e-05 0
0.000164 4.5e-05 0
0.000161754 4.58641e-05 0
0.000161722 4.78101e-05 0
0.000159956 4.58294e-05 0
0.000160925 4.4625e-05 0
0.00016195 4.475e-05 0
0.000157667 4.60322e-05 0
0.000158875 4.4375e-05 0
0.000159194 4.80155e-05 0
0.0001599 4.45e-05 0
0.00015785 4.425e-05 0
0.000155808 4.56757e-05 0
0.000155647 4.76701e-05 0
0.000154059 4.66642e-05 0
0.000153756 4.50083e-05 0
0.000154839 4.50446e-05 0
0.000156825 4.4125e-05 0
0.000151954 4.80508e-05 0
0.000154052 4.8477e-05 0
0.000153 5e-05 0
0.000154775 4.3875e-05 0
0.000152142 4.56625e-05 0
0.000152821 4.45753e-05 0
0.00015375 4.375e-05 0
0.0001504 5e-05 0
0.000149644 4.85168e-05 0
0.000151787 4.43178e-05 0
0.000152725 4.3625e-05 0
0.000150675 4.3375e-05 0
0.0001517 4.35e-05 0
0.000148119 4.50887e-05 0
0.000148072 4.75757e-05 0
0.000146584 4.63516e-05 0
0.000150008 4.6396e-05 0
0.000149351 4.4543e-05 0
0.00015061 4.46252e-05 0
0.0001476 4.3e-05 0
0.000148625 4.3125e-05 0
0.000146492 4.82975e-05 0
0.000144888 4.73562e-05 0
0.000146676 4.44259e-05 0
0.000145255 4.53656e-05 0
0.000145652 4.38669e-05 0
0.000141401 4.79821e-05 0
0.0001426 5e-05 0
0.00014 5e-05 0
0.000144374 4.38862e-05 0
0.00014555 4.275e-05 0
0.0001435 4.25e-05 0
0.000144525 4.2625e-05 0
0.000142746 4.38121e-05 0
0.000141288 4.43191e-05 0
0.000141707 4.32778e-05 0
0.00013921 4.38992e-05 0
0.000140355 4.5932e-05 0
0.000138302 4.5922e-05 0
0.000142912 4.58869e-05 0
0.000140592 4.30037e-05 0
0.00014145 4.225e-05 0
0.000136458 4.5869e-05 0
0.000137106 4.4063e-05 0
0.0001394 4.2e-05 0
0.000138259 4.28915e-05 0
0.000137484 4.77094e-05 0
0.000139166 4.78902e-05 0
0.00013586 4.78984e-05 0
0.000133449 4.78649e-05 0
0.000134717 4.61848e-05 0
0.000137256 4.25134e-05 0
0.000135323 4.24541e-05 0
0.000136325 4.1625e-05 0
0.000136122 4.2876e-05 0
0.000131206 4.47284e-05 0
0.000133168 4.56738e-05 0
0.000131773 4.65243e-05 0
0.000134756 4.40343e-05 0
0.000132747 4.36463e-05 0
0.000133483 4.26786e-05 0
0.000131081 4.1867e-05 0
0.000132382 4.22815e-05 0
0.000131507 4.3122e-05 0
0.000131059 4.80123e-05 0
0.00013325 4.125e-05 0
0.00012915 4.075e-05 0
0.00012982 4.18199e-05 0
0.000128915 4.26216e-05 0
0.000126366 4.47574e-05 0
0.000127331 4.30908e-05 0
0.000128781 4.44872e-05 0
0.000125336 4.28376e-05 0
0.000130218 4.31077e-05 0
0.000127894 4.16344e-05 0
0.000124774 4.69608e-05 0
0.000127668 4.64148e-05 0
0.000126591 4.8331e-05 0
0.000126722 4.18415e-05 0
0.000125768 4.11931e-05 0
0.000124326 4.13546e-05 0
0.00012505 4.025e-05 0
0.000122408 4.50118e-05 0
0.000120276 4.47432e-05 0
0.00012139 4.32235e-05 0
0.000124336 4.44132e-05 0
0.000123056 4.27595e-05 0
0.000122977 4.09049e-05 0
0.00012185 4.69217e-05 0
0.000122676 4.85947e-05 0
0.000120525 4.86094e-05 0
0.000121479 4.13153e-05 0
0.000119547 4.24221e-05 0
0.000120249 4.07448e-05 0
0.000119925 3.9625e-05 0
0.000119346 4.06114e-05 0
0.000117479 4.47279e-05 0
0.000114726 4.45259e-05 0
0.00011571 4.27814e-05 0
0.000119443 4.66611e-05 0
0.000117447 4.21596e-05 0
0.000118421 4.0752e-05 0
0.000117409 4.04437e-05 0
0.000116775 4.70073e-05 0
0.0001179 4.855e-05 0
0.000115473 4.84802e-05 0
0.00011685 3.925e-05 0
0.000117875 3.9375e-05 0
0.000115454 4.00551e-05 0
0.0001148 3.9e-05 0
0.000115825 3.9125e-05 0
0.000111704 4.23398e-05 0
0.000113786 4.26731e-05 0
0.000112589 4.43871e-05 0
0.000113234 4.06671e-05 0
0.000114754 4.13371e-05 0
0.0001106 4.42326e-05 0
0.000109703 4.24261e-05 0
0.00011275 3.875e-05 0
0.000113775 3.8875e-05 0
0.000110211 4.80875e-05 0
0.000108244 4.71951e-05 0
0.000109312 4.58413e-05 0
0.000111755 3.99116e-05 0
0.00010944 3.92972e-05 0
0.000110415 4.05876e-05 0
0.000108839 4.07536e-05 0
0.000106472 4.76905e-05 0
0.000107274 4.57868e-05 0
0.000108011 3.92415e-05 0
0.000106885 4.04365e-05 0
0.000106625 3.88708e-05 0
0.000105286 4.19254e-05 0
0.000105055 3.95469e-05 0
0.000104215 4.39764e-05 0
0.000106346 4.40629e-05 0
0.000100945 4.51249e-05 0
0.000102825 4.5614e-05 0
0.000101189 4.68452e-05 0
0.000107625 3.8125e-05 0
0.000105575 3.7875e-05 0
0.0001066 3.8e-05 0
0.000103352 4.76905e-05 0
0.000101803 4.8465e-05 0
0.000103685 3.89398e-05 0
0.00010245 3.8825e-05 0
0.000103525 3.7625e-05 0
0.000101092 3.99779e-05 0
0.000101267 3.82619e-05 0
0.000101382 4.2025e-05 0
0.000103187 4.05286e-05 0
0.000103359 4.24605e-05 0
9.87383e-05 4.5447e-05 0
9.99411e-05 4.35161e-05 0
9.744e-05 4.33145e-05 0
0.00010045 3.725e-05 0
0.000101475 3.7375e-05 0
9.70845e-05 4.65215e-05 0
9.52614e-05 4.67664e-05 0
9.61768e-05 4.49944e-05 0
9.9729e-05 3.87704e-05 0
9.78901e-05 3.9598e-05 0
9.85823e-05 3.81492e-05 0
9.62289e-05 3.93709e-05 0
9.74259e-05 3.81279e-05 0
9.7375e-05 3.6875e-05 0
9.63045e-05 3.76631e-05 0
9.58e-05 5e-05 0
9.32e-05 5e-05 0
9.47542e-05 4.8457e-05 0
9.49675e-05 3.85246e-05 0
9.36214e-05 3.89472e-05 0
9.40006e-05 3.74906e-05 0
9.66411e-05 4.12573e-05 0
9.44241e-05 4.07079e-05 0
9.03569e-05 4.24993e-05 0
9.21701e-05 4.02409e-05 0
9.27439e-05 4.27744e-05 0
8.89795e-05 4.09067e-05 0
9.03071e-05 4.0248e-05 0
9.25447e-05 3.77721e-05 0
9.3275e-05 3.6375e-05 0
9.07708e-05 3.87127e-05 0
9.11303e-05 3.70839e-05 0
9.11933e-05 4.55145e-05 0
9.30678e-05 4.73279e-05 0
9.11886e-05 4.82603e-05 0
8.87724e-05 3.88076e-05 0
8.99595e-05 3.75116e-05 0
9.02e-05 3.6e-05 0
8.89241e-05 3.6954e-05 0
8.36977e-05 4.59472e-05 0
8.36223e-05 4.83578e-05 0
8.20467e-05 4.74142e-05 0
8.71227e-05 4.03557e-05 0
8.61e-05 3.55e-05 0
8.68368e-05 3.65714e-05 0
8.5484e-05 3.6588e-05 0
8.47735e-05 4.02845e-05 0
8.23121e-05 4.21599e-05 0
8.26582e-05 3.98147e-05 0
8.46943e-05 4.2454e-05 0
8.38832e-05 3.78613e-05 0
8.35569e-05 3.63808e-05 0
8.44098e-05 3.6291e-05 0
8.5075e-05 3.5375e-05 0
8.51465e-05 4.77163e-05 0
8.3025e-05 3.5125e-05 0
8.22824e-05 3.68659e-05 0
8.1446e-05 3.57362e-05 0
8.05884e-05 3.71794e-05 0
7.53471e-05 4.77524e-05 0
7.38313e-05 4.73927e-05 0
7.39102e-05 4.61526e-05 0
7.9826e-05 3.58588e-05 0
7.88607e-05 3.76287e-05 0
7.81733e-05 3.57987e-05 0
8.16783e-05 3.84471e-05 0
8.07975e-05 4.04095e-05 0
7.52138e-05 4.04775e-05 0
7.67682e-05 4.17043e-05 0
7.49617e-05 4.21803e-05 0
7.52903e-05 3.84008e-05 0
7.38293e-05 3.93136e-05 0
[...]
CELL_DATA 58684
VECTORS velocity DOUBLE
74.0156 0.337177 0
85.3213 -0.000201228 0
85.2943 0.000186666 0
85.3256 -0.00170974 0
85.2976 0.00178101 0
85.3317 -0.0020579 0
85.3037 0.00210951 0
77.8614 -0.00287984 0
77.8675 -0.0234527 0
77.9436 -0.00408481 0
78.0357 -0.00701563 0
78.0843 -0.407216 0
77.8873 -0.109769 0
78.157 -0.134189 0
77.8707 -0.185506 0
78.3324 -0.172053 0
77.8614 -0.111525 0
78.6566 -0.156717 0
77.9058 -0.317147 0
79.1316 -0.113907 0
77.8758 -0.113586 0
78.6312 -0.367515 0
84.9304 -2.17157 0
77.8552 0.0116391 0
77.8515 0.0512813 0
77.8551 0.024951 0
77.8734 0.140635 0
77.8671 0.0224717 0
77.8728 0.188394 0
77.9428 0.0492838 0
77.8718 0.144562 0
77.907 0.0320657 0
77.8332 0.144852 0
78.2201 0.163465 0
77.9389 1.1294 0
78.0932 0.0674636 0
77.8846 0.176323 0
78.2873 0.354415 0
85.3381 0.000345327 0
85.3424 -0.000418287 0
85.3518 -0.00509554 0
85.3553 -0.0027898 0
85.3636 -0.000932238 0
85.3714 -0.00512805 0
85.3747 -0.00646173 0
85.3785 -0.00282004 0
85.3857 -0.000626476 0
85.3925 -0.00717272 0
85.3947 -0.00499272 0
85.4026 -0.00138053 0
85.4107 -0.00812294 0
85.4129 -0.00836678 0
85.4158 -0.00450503 0
85.423 -0.00105176 0
85.4292 -0.00903841 0
85.4308 -0.00693902 0
85.4386 -0.00204716 0
85.4473 -0.0111321 0
85.4493 -0.0108727 0
85.4516 -0.00594412 0
85.4611 -0.000755987 0
85.4634 -0.012556 0
85.4719 -0.00877564 0
85.4829 -0.000607641 0
85.4841 -0.0155336 0
85.4872 -0.0128911 0
85.4944 -0.0107675 0
85.5019 -0.00105309 0
85.5042 -0.015365 0
85.5113 -0.0113719 0
85.5209 -0.00190614 0
85.5223 -0.0175244 0
85.528 -0.0127435 0
85.536 -0.0210514 0
85.545 -0.000926331 0
85.5479 -0.0160044 0
85.554 -0.0103839 0
85.5672 -0.00178099 0
85.5694 -0.0217783 0
85.592 -0.0179443 0
85.5734 -0.0174636 0
85.5938 -0.00100662 0
85.6029 -0.0117288 0
85.5963 -0.0226936 0
85.6278 -0.0140122 0
85.6215 -0.0185072 0
85.6176 -0.0256492 0
85.6303 -0.0308052 0
85.655 -0.019848 0
85.6695 -0.0279415 0
85.6447 -0.0236906 0
85.662 -0.0342671 0
85.6829 -0.0263271 0
85.678 -0.0266965 0
85.6869 -0.0366083 0
85.7215 -0.034544 0
85.7043 -0.0298214 0
85.7112 -0.038943 0
85.7312 -0.0455418 0
85.7397 -0.0346481 0
85.7676 -0.0417522 0
85.7417 -0.0359821 0
85.7718 -0.0122396 0
85.7712 -0.0462303 0
85.7934 -0.0440041 0
85.7838 -0.0473585 0
85.7989 -0.014185 0
85.7999 -0.0507844 0
85.8175 -0.0558557 0
85.8425 -0.0320805 0
85.8375 -0.0344871 0
85.8208 -0.0469199 0
85.8575 -0.0606852 0
85.8598 -0.0251114 0
85.8906 -0.0558238 0
85.8777 -0.0361982 0
85.9205 -0.00241456 0
85.9012 -0.0632672 0
85.918 -0.0717388 0
85.954 -0.0640514 0
85.9784 -0.0485466 0
85.9293 -0.0389989 0
85.9637 -0.0733629 0
86.0077 -0.0496173 0
85.9986 -0.0772479 0
85.9757 -0.0270257 0
86.013 -0.0698914 0
86.0351 -0.0258435 0
86.0276 -0.0816853 0
86.0578 -0.0943995 0
86.1009 -0.0565283 0
86.0897 -0.0778981 0
86.0647 -0.0361146 0
86.1333 -0.102736 0
86.0792 -0.0287772 0
86.109 -0.10175 0
86.1828 -0.115179 0
86.2011 -0.081015 0
86.2203 -0.100509 0
86.1719 -0.0968865 0
86.2022 -0.105755 0
86.1734 -0.0469741 0
86.2506 -0.122829 0
86.278 -0.134941 0
86.3207 -0.0895039 0
86.236 -0.064783 0
86.2757 -0.115761 0
86.2988 -0.137856 0
86.2652 -0.0271043 0
86.3757 -0.148364 0
86.3889 -0.164216 0
86.4428 -0.101314 0
86.3465 -0.089273 0
86.4075 -0.137473 0
86.4307 -0.16604 0
86.3747 -0.0289412 0
86.4498 -0.191813 0
86.5054 -0.206461 0
86.5289 -0.147245 0
86.5203 -0.169114 0
86.5827 -0.156966 0
86.5532 -0.214722 0
86.5673 -0.056293 0
86.5652 -0.201635 0
86.6485 -0.2075 0
86.6299 -0.0683329 0
86.723 -0.248286 0
86.7553 -0.229816 0
86.7374 -0.145007 0
86.8143 -0.112707 0
86.7258 -0.253303 0
86.7671 -0.279869 0
86.7835 -0.0573725 0
86.8508 -0.284894 0
86.9071 -0.294217 0
86.8228 -0.211113 0
86.8994 -0.132578 0
86.9423 -0.176808 0
86.9392 -0.336303 0
86.9985 -0.115235 0
87.0152 -0.314376 0
87.0523 -0.309428 0
87.0776 -0.362224 0
87.0389 -0.00395808 0
87.1908 -0.362394 0
87.0677 -0.279241 0
87.2066 -0.253185 0
87.2839 -0.296412 0
87.2434 -0.401539 0
87.3089 -0.406528 0
87.1691 -0.0912606 0
87.3527 -0.394687 0
87.3805 -0.45631 0
87.3966 -0.439304 0
87.5165 -0.102341 0
87.3836 -0.349611 0
87.5657 -0.505722 0
87.6295 -0.384953 0
87.5449 -0.323978 0
87.6341 -0.535894 0
87.6152 -0.528026 0
87.5014 -0.091068 0
87.7321 -0.589263 0
87.7733 -0.552397 0
87.9857 -0.10506 0
87.884 -0.608205 0
87.7161 -0.423588 0
87.999 -0.387828 0
88.067 -0.501028 0
87.9461 -0.55214 0
87.971 -0.658063 0
88.0487 -0.237948 0
88.1628 -0.633449 0
88.1107 -0.732557 0
88.32 -0.742025 0
88.2895 -0.00992923 0
88.2729 -0.613316 0
88.335 -0.768466 0
88.1724 -0.19064 0
88.4045 -0.809415 0
88.5121 -0.464223 0
88.4534 -0.846802 0
88.6961 -0.25916 0
88.6438 -0.725477 0
88.6044 -0.856712 0
88.5513 -0.1327 0
88.7577 -0.883347 0
88.9581 -0.859737 0
88.7931 -0.735822 0
88.8461 -0.441404 0
88.9925 -0.989915 0
89.0157 -0.386556 0
89.196 -0.066615 0
88.9381 -0.776657 0
89.1212 -0.977634 0
89.2147 -1.05209 0
89.2615 -0.327408 0
89.377 -0.904141 0
89.5456 -0.988608 0
89.3523 -0.112315 0
89.7072 -0.959268 0
89.611 -1.07496 0
89.4664 -0.797291 0
89.5425 -0.383533 0
89.6638 -0.447201 0
89.7812 -1.07814 0
89.7397 -0.00535532 0
89.8962 -1.15062 0
90.0436 -1.08754 0
89.9955 -1.14743 0
89.9995 -0.247407 0
90.1192 -0.932332 0
90.3884 -0.938687 0
89.9807 -0.00343444 0
90.4812 -1.11859 0
90.6776 -0.944877 0
90.3035 -0.686078 0
90.1365 -0.282224 0
90.6691 -1.06967 0
90.3067 -0.347926 0
90.144 -0.0151532 0
90.6055 -0.714064 0
90.9515 -0.965092 0
91.1286 -0.896431 0
90.3215 -0.0683233 0
91.0885 -0.604186 0
91.2245 -0.797093 0
90.2023 0.0351324 0
91.3735 -0.781583 0
91.5729 -0.64497 0
91.1923 -0.212124 0
89.9823 0.0113636 0
91.742 -0.411809 0
90.8823 0.220071 0
91.1227 0.333248 0
91.6164 -0.260107 0
91.3948 0.00133395 0
92.0922 -0.0112079 0
90.1159 0.385452 0
92.0742 -0.11595 0
91.6322 0.457789 0
92.293 0.54236 0
90.0265 0.113117 0
92.2591 1.25185 0
92.0338 1.48257 0
88.7013 0.199978 0
92.4834 0.944429 0
92.3899 1.42492 0
90.0484 1.50664 0
89.7882 0.720478 0
91.3182 1.15442 0
92.2932 1.96156 0
88.9507 0.334534 0
91.8066 2.85409 0
92.4732 2.20968 0
92.4876 2.438 0
88.2113 1.42907 0
90.8389 2.97288 0
91.8669 3.24435 0
88.1895 0.236748 0
91.6829 3.7473 0
91.3386 3.61627 0
90.3854 5.2403 0
85.9511 0.397752 0
91.5107 4.94895 0
89.5321 3.56656 0
87.6787 1.5779 0
87.3061 3.0032 0
91.2802 5.45427 0
90.1572 5.89129 0
86.3865 0.612539 0
90.2261 6.71931 0
85.3099 -6.99929e-05 0
85.3145 0.000369976 0
85.3229 0.00456953 0
85.3263 0.00225602 0
85.3339 0.000928988 0
85.3414 0.00485797 0
85.3443 0.00553977 0
85.3483 0.00227729 0
85.355 0.000676852 0
85.3616 0.0067866 0
85.3637 0.00467439 0
85.3711 0.00135313 0
85.3788 0.00760131 0
85.3809 0.0079438 0
85.3838 0.00427295 0
85.3908 0.00103835 0
85.3969 0.00884144 0
85.3987 0.00664835 0
85.4065 0.00203016 0
85.415 0.0110688 0
85.417 0.0107347 0
85.4281 0.0134987 0
85.4194 0.00582179 0
85.4361 0.00889122 0
85.448 0.0139336 0
85.4394 0.00892586 0
85.4551 0.0132389 0
85.4624 0.0109533 0
85.4697 0.0173239 0
85.4592 0.00885389 0
85.4792 0.011566 0
85.4876 0.0193459 0
85.4794 0.0093177 0
85.5044 0.0220219 0
85.5078 0.0196723 0
85.5138 0.0153967 0
85.5002 0.0115427 0
85.5167 0.0164762 0
85.534 0.0156955 0
85.5229 0.0106872 0
85.5507 0.0269455 0
85.5507 0.0104163 0
85.5618 0.0182688 0
85.5466 0.0141603 0
85.5662 0.0230807 0
85.5881 0.0261035 0
85.5978 0.014382 0
85.5852 0.0241481 0
85.6073 0.0285011 0
85.6108 0.0310069 0
85.636 0.0157297 0
85.6258 0.0201084 0
85.6403 0.0282485 0
85.6553 0.0398984 0
85.6647 0.0190828 0
85.6692 0.0317982 0
85.6791 0.0419588 0
85.6957 0.0248805 0
85.6749 0.0299561 0
85.7031 0.0466212 0
85.7061 0.0442475 0
85.7171 0.028345 0
85.7293 0.0202589 0
85.7395 0.041582 0
85.6785 0.0139308 0
85.7558 0.0478913 0
85.7899 0.0569113 0
85.7727 0.0483155 0
85.7579 0.0289954 0
85.8037 0.0574701 0
85.8114 0.0507829 0
85.8341 0.0253668 0
85.7943 0.0477757 0
85.8375 0.0536498 0
85.8555 0.0623656 0
85.8035 0.0151732 0
85.8442 0.0446503 0
85.8929 0.0721366 0
85.8542 0.0368741 0
85.9051 0.0637499 0
85.9377 0.0768036 0
85.913 0.0565692 0
85.9342 0.0230116 0
85.9493 0.0672703 0
85.9679 0.0787769 0
85.951 0.0205352 0
85.9941 0.0869502 0
85.9602 0.0630008 0
86.02 0.0722774 0
85.9781 0.0492633 0
86.0309 0.0946655 0
86.0957 0.114901 0
86.0553 0.0285598 0
86.0524 0.0786648 0
86.1233 0.122234 0
86.101 0.0867192 0
86.0415 0.0352527 0
86.1411 0.113535 0
86.1665 0.120338 0
86.1275 0.0296319 0
86.1753 0.0537139 0
86.2034 0.105327 0
86.2206 0.140514 0
86.1484 0.0748116 0
86.2542 0.136461 0
86.2777 0.146861 0
86.286 0.0495941 0
86.2582 0.0903625 0
86.3314 0.165052 0
86.3269 0.140903 0
86.2233 0.0470664 0
86.3537 0.158491 0
86.4071 0.169723 0
86.3848 0.0673141 0
86.3707 0.145559 0
86.4696 0.20391 0
86.4573 0.156146 0
86.3252 0.0498504 0
86.4963 0.190271 0
86.572 0.233912 0
86.4505 0.0669489 0
86.5598 0.185749 0
86.5402 0.0861487 0
86.6069 0.196093 0
86.5156 0.110666 0
86.6381 0.248269 0
86.7019 0.249101 0
86.6065 0.0687408 0
86.6925 0.24396 0
86.777 0.282354 0
86.7398 0.071794 0
86.6605 0.205693 0
86.7707 0.241977 0
86.831 0.286344 0
86.7095 0.0441158 0
86.8459 0.261291 0
86.9557 0.340712 0
86.9375 0.285998 0
86.8736 0.0860428 0
87.0191 0.299813 0
86.82 0.109925 0
86.8492 0.252039 0
87.0058 0.33137 0
87.1246 0.375933 0
87.1368 0.385855 0
86.8413 0.0057356 0
87.2437 0.440128 0
87.2578 0.427814 0
87.2901 0.379541 0
87.2241 0.185883 0
87.3407 0.201496 0
87.3034 0.424251 0
87.0584 0.115018 0
87.4374 0.477687 0
87.4288 0.470422 0
87.4398 0.423168 0
87.3281 0.122989 0
87.5285 0.47006 0
87.6623 0.588119 0
87.518 0.220469 0
87.4547 0.232836 0
87.6233 0.476428 0
87.8002 0.610619 0
87.3663 0.144155 0
87.8428 0.646715 0
87.8877 0.628174 0
87.697 0.122884 0
88.0421 0.720592 0
88.0794 0.690397 0
88.1619 0.595815 0
87.9278 0.261255 0
87.8897 0.295677 0
88.0657 0.667693 0
87.7829 0.190731 0
88.2459 0.797121 0
88.3061 0.750747 0
88.3119 0.693274 0
88.0303 0.104895 0
88.4977 0.816084 0
88.5191 0.834215 0
88.3507 0.46784 0
88.6294 0.656852 0
88.3733 0.379464 0
88.5816 0.799592 0
88.2496 0.24077 0
88.7537 0.930809 0
88.7832 0.89865 0
88.2981 0.193177 0
88.8648 0.828727 0
89.0639 0.953512 0
88.9678 0.932623 0
88.8569 0.217212 0
89.293 0.995999 0
89.3417 1.06487 0
88.7972 0.644784 0
89.2351 0.789051 0
88.8694 0.3928 0
89.5561 1.11938 0
89.0731 0.12195 0
89.6276 1.08576 0
89.6254 1.02675 0
88.8727 0.0967503 0
89.5576 0.930751 0
89.9773 1.09626 0
90.0789 1.10469 0
89.5156 0.279216 0
90.1618 1.07565 0
90.2146 1.14809 0
89.4785 0.701484 0
90.2362 0.751695 0
89.6949 0.269065 0
90.3957 1.14308 0
89.7302 0.0987964 0
90.5569 1.06276 0
90.6551 1.04466 0
89.5383 0.071762 0
90.4727 0.864101 0
90.9709 0.966657 0
91.1465 0.899169 0
90.0227 0.17207 0
90.9747 0.841137 0
91.2986 0.845639 0
90.5743 0.732679 0
91.0936 0.409942 0
90.1259 0.105254 0
91.056 0.756842 0
90.1562 0.0375413 0
91.563 0.732474 0
91.6577 0.580471 0
90.035 0.0387119 0
91.3623 0.269695 0
91.8241 0.288091 0
92.024 0.148749 0
90.2033 -0.102736 0
92.1224 -0.060851 0
92.1738 -0.198869 0
90.3665 -0.284559 0
92.1915 -0.231557 0
91.3936 -0.67353 0
90.616 -0.106934 0
90.4113 -0.00844257 0
92.3375 -0.529871 0
92.1014 -0.926097 0
92.5402 -1.11149 0
90.095 -0.00789641 0
91.8235 -1.37562 0
92.5521 -1.8549 0
90.072 -0.129787 0
91.6517 -1.34005 0
92.5341 -2.39899 0
91.1093 -1.80606 0
90.0672 -0.673863 0
92.3462 -2.74799 0
92.21 -3.0407 0
91.0471 -1.14778 0
90.5332 -3.18835 0
88.5258 -2.61671 0
91.8546 -3.07096 0
88.908 -0.41412 0
91.8454 -4.02866 0
89.3123 7.31222 0
90.0343 6.54447 0
84.7177 1.93016 0
89.2119 7.26644 0
87.0011 6.64037 0
88.5576 7.8943 0
85.2936 0.759968 0
87.5896 8.09158 0
86.4342 7.95727 0
84.0726 0.962726 0
86.5035 8.48466 0
91.7597 -4.44608 0
89.1412 -0.255818 0
91.4975 -4.78975 0
90.2722 -5.17777 0
89.7179 -4.45888 0
88.281 -0.272336 0
90.5116 -5.77102 0
85.2266 7.74437 0
89.8678 -7.04225 0
88.0449 -1.41114 0
89.5493 -6.80564 0
88.6946 -7.76506 0
82.9429 2.36416 0
88.2633 -7.61733 0
89.4573 -4.26778 0
88.7518 -6.90676 0
86.9139 -5.10771 0
85.978 -0.841634 0
87.8244 -7.00763 0
87.0436 -7.41237 0
84.6065 8.17109 0
87.1124 -7.42593 0
86.7967 -0.457649 0
86.0973 -7.77028 0
85.5868 -8.47426 0
85.3134 -0.566195 0
84.5126 -8.61193 0
85.0199 -6.3255 0
83.1942 -0.655807 0
83.51 -8.76086 0
83.6034 -4.85853 0
85.2818 -3.8344 0
84.0572 -7.50318 0
82.9629 -7.84813 0
85.5916 4.39904 0
82.0613 0.530372 0
85.0094 2.94064 0
83.6933 -0.0759562 0
82.417 -8.51137 0
84.238 7.73829 0
81.7969 0.3843 0
83.6817 6.58059 0
81.5646 -8.37308 0
83.2726 -1.71406 0
80.8891 -6.10997 0
83.6604 8.81671 0
80.7119 2.01983 0
83.5611 8.74091 0
81.3928 7.28104 0
80.9951 0.411226 0
82.0046 7.66066 0
81.4829 -6.36126 0
82.7991 -0.472256 0
80.723 -8.49985 0
80.7441 -8.26589 0
82.3696 8.22784 0
80.4805 7.83795 0
80.3278 0.042826 0
81.5211 8.09527 0
79.7254 5.06665 0
80.3184 2.28094 0
79.8121 -8.44514 0
80.7795 -1.09385 0
80.1439 -8.32032 0
79.3563 8.28758 0
79.2022 -7.71465 0
79.9381 -1.07436 0
79.5554 -3.39015 0
77.9585 -7.40724 0
80.9822 -4.09907 0
77.8218 -7.16408 0
79.4583 -0.290684 0
76.9169 -6.84291 0
79.1155 2.8576 0
79.7186 0.460496 0
78.9474 6.95853 0
79.1386 0.117872 0
78.7313 8.16439 0
78.4564 7.65935 0
78.8353 0.185857 0
77.7156 6.70226 0
78.6306 0.133657 0
78.3031 -6.40394 0
79.455 -0.574426 0
79.5187 6.03056 0
77.8577 0.732916 0
77.2762 6.29246 0
76.8064 -6.80287 0
79.567 -0.228844 0
75.1947 -5.81723 0
77.8563 -0.440269 0
76.0172 -5.72533 0
78.4129 2.54302 0
77.8522 0.120782 0
79.03 -5.21035 0
77.8534 -0.112733 0
75.3264 -5.3898 0
76.6963 5.67689 0
76.7439 -4.25206 0
77.8612 -0.240597 0
75.6415 -4.61578 0
77.7666 3.13358 0
75.6336 1.98708 0
76.2103 4.90817 0
77.5748 -0.981763 0
75.4775 -5.1148 0
77.7947 0.402082 0
76.1081 6.62433 0
77.5637 -2.37059 0
77.8546 -0.0838267 0
75.1554 -4.61484 0
75.8465 5.91736 0
77.7956 0.715329 0
75.8235 4.62439 0
75.5409 4.56365 0
77.7874 0.381389 0
74.7528 4.06509 0
74.2989 -4.1426 0
77.8246 -0.293745 0
73.9985 -4.13646 0
76.4225 -1.96891 0
77.8437 -0.199411 0
73.383 -2.81879 0
74.8021 5.0572 0
77.715 0.618063 0
76.0778 3.23951 0
73.9984 -2.55959 0
77.7235 -0.311918 0
73.3482 -2.33199 0
73.6965 3.72017 0
77.7321 0.263525 0
74.1023 3.50494 0
74.4087 2.85846 0
77.8517 0.0340794 0
73.5683 3.04558 0
74.7107 -1.50682 0
77.6538 -0.538151 0
73.9937 -1.32862 0
72.8073 -0.845448 0
76.9472 -0.920196 0
72.8584 -0.716258 0
76.6412 0.956923 0
77.7734 0.0795315 0
75.6957 2.42419 0
73.3503 2.4524 0
77.622 0.059046 0
72.9285 1.54933 0
77.3183 -0.234415 0
77.8335 -0.112591 0
72.8572 -0.235276 0
73.3874 -0.0920936 0
77.7952 -0.0657236 0
75.6328 0.306056 0
73.5547 0.52448 0
77.8133 -0.061711 0
76.9205 -5.63939 0
77.8842 -0.431292 0
77.8365 0.133624 0
77.7243 6.86305 0
78.6474 -7.7191 0
81.7052 -0.942824 0
80.1606 0.994683 0
81.2815 8.59941 0
77.7759 0.27967 0
74.2511 4.8385 0
73.7477 -2.82781 0
77.7966 -0.202678 0
77.8296 -0.572798 0
77.3338 -3.6573 0
77.8775 0.799938 0
77.8946 0.197534 0
77.784 -0.000186661 0
73.4251 2.0472 0
79.0956 0.464799 0
78.233 1.571 0
78.5444 -1.37106 0
79.9826 -0.688875 0
85.4023 -1.27386 0
84.9838 -8.45965 0
86.8532 8.08319 0
84.9472 0.469582 0
77.6093 1.65887 0
79.2763 7.9813 0
78.231 -7.06144 0
79.0254 -2.30927 0
76.748 -1.45595 0
74.3969 -0.218932 0
75.8858 5.81174 0
77.9196 1.88422 0
77.7634 -1.78533 0
74.5247 -4.61966 0
91.2506 -5.42721 0
87.9733 -0.665498 0
87.5613 0.796259 0
91.6839 4.53108 0
77.8722 -0.81336 0
77.8669 -0.0434225 0
77.8505 0.148555 0
78.7676 0.75415 0
82.7411 0.737935 0
82.3714 4.10274 0
80.8885 -1.9866 0
83.9043 -1.74617 0
81.3064 4.88944 0
84.1705 8.30144 0
83.0127 -8.67532 0
82.1918 -1.91829 0
86.1551 1.61475 0
87.2312 5.04046 0
85.8115 -2.79641 0
86.9323 -0.0441293 0
90.0252 -0.258233 0
92.5062 -1.36155 0
92.328 0.554629 0
89.2478 0.0306193 0
90.1295 0.00122309 0
91.7029 0.560751 0
91.4747 -0.548043 0
90.3036 0.0435679 0
78.8203 -1.44311 0
78.3165 -0.572004 0
78.2216 1.23421 0
78.9849 0.946217 0
78.0769 1.22181 0
77.8604 0.238267 0
77.8506 -0.107549 0
78.0146 -1.12244 0
88.9589 0.964235 0
90.1852 1.90849 0
89.2744 -1.16006 0
89.4602 -0.173876 0
75.7695 -0.957285 0
77.8128 -0.154783 0
77.3657 -0.439005 0
77.8225 -0.371816 0
77.8311 0.20604 0
77.7754 0.965893 0
90.737 0.987947 0
89.8781 0.154611 0
90.0668 -0.00258159 0
90.4407 -1.07208 0
81.3444 -0.0416833 0
80.599 -2.81998 0
81.6311 1.80267 0
80.38 0.447919 0
77.578 4.03149 0
77.0103 7.29869 0
76.7795 -6.24228 0
78.0654 -3.21604 0
78.5814 -2.1042 0
77.3466 -2.22504 0
77.6524 4.62612 0
78.026 2.21978 0
90.3149 0.0549656 0
90.0693 0.145947 0
90.2313 -0.0529756 0
91.2038 0.0797634 0
79.4348 -5.41225 0
80.5011 -5.25192 0
80.1089 4.63224 0
80.5887 8.51837 0
78.8147 -3.97075 0
79.9775 -2.31055 0
79.8066 3.1128 0
79.0351 1.53186 0
89.9029 1.1675 0
89.3275 0.142185 0
89.5967 -0.00960269 0
89.4468 -1.04885 0
77.1661 1.00968 0
77.8269 0.0308525 0
90.1368 -0.055304 0
90.7976 -0.346062 0
90.501 0.242383 0
89.9447 0.0377295 0
78.6442 -0.953179 0
78.1968 -1.32761 0
78.9204 1.73716 0
78.1082 0.735168 0
77.8726 -0.146132 0
78.0456 -0.695482 0
77.9061 0.314775 0
77.8492 0.136257 0
73.8677 1.70861 0
76.777 1.51966 0
86.5611 -3.16162 0
89.8609 -6.38685 0
90.8105 5.84736 0
86.2735 2.2836 0
76.5955 -2.30299 0
74.4961 -2.88995 0
88.5738 0.159036 0
88.8555 0.896609 0
87.7931 0.0758105 0
88.4607 0.855238 0
88.8696 -0.874899 0
88.7189 -0.142156 0
88.1937 -0.71335 0
88.1295 -0.0127672 0
89.7745 -0.216628 0
89.8759 -0.626475 0
89.7235 0.394437 0
89.4682 0.0063504 0
77.8304 0.17983 0
77.5942 0.536149 0
76.2771 0.452361 0
73.9655 0.843332 0
77.7354 -0.247004 0
77.8183 -0.17024 0
77.261 0.275204 0
77.1719 -0.745412 0
92.3459 -2.80265 0
89.2095 -1.76943 0
90.1869 2.25138 0
92.4947 1.66321 0
77.9541 -0.064228 0
78.0318 -0.366195 0
77.8677 0.0507166 0
78.187 0.259984 0
89.1091 -0.207789 0
89.118 -0.540727 0
89.1566 0.361469 0
88.727 0.116108 0
87.5784 0.167942 0
87.7745 0.53572 0
87.7861 -0.625691 0
87.6832 -0.151839 0
78.3219 -0.896656 0
79.1534 -2.12638 0
78.6288 1.60843 0
78.2914 1.26995 0
78.9087 2.87291 0
77.4092 1.8449 0
77.9512 -1.91734 0
78.5522 -2.78363 0
90.6982 -0.553201 0
91.6344 0.277884 0
91.8077 -0.268459 0
91.1221 0.597793 0
77.5646 -1.14298 0
77.6709 -1.35972 0
77.7164 1.07792 0
77.1839 1.30023 0
87.5722 0.553797 0
87.2581 0.164949 0
87.328 -0.102958 0
87.5034 -0.471237 0
84.7086 4.27002 0
86.6737 7.13944 0
86.1658 -8.40296 0
85.7309 -3.35237 0
74.9691 -3.41159 0
77.3061 -3.50351 0
84.3398 -3.06321 0
84.9637 -1.09808 0
83.3638 0.452863 0
86.6002 3.11919 0
74.5424 4.60953 0
76.5043 2.72353 0
88.401 -0.0515027 0
88.5753 -0.552785 0
88.4551 0.367315 0
88.3603 0.101187 0
88.3952 -0.372499 0
88.1874 -1.52637 0
88.7361 2.10626 0
87.7673 0.274369 0
82.7523 1.39456 0
81.0664 0.349866 0
82.1509 -0.334441 0
82.7821 -3.10962 0
90.4545 0.317431 0
90.7289 0.853963 0
90.8933 -0.930451 0
90.8221 -0.0427281 0
81.8013 -3.82704 0
82.8733 -1.83722 0
82.1115 2.70743 0
84.5921 5.98764 0
87.1135 0.333901 0
86.9833 0.0631499 0
87.1875 -0.101206 0
87.092 -0.347295 0
87.8042 -0.188174 0
87.9977 -0.00776803 0
87.9657 0.103221 0
87.7598 0.439413 0
79.6725 0.494932 0
79.4393 1.29916 0
79.6843 -1.14524 0
80.4916 -0.316208 0
81.1235 2.82053 0
79.582 1.94471 0
78.9697 -2.82759 0
78.1753 -2.85088 0
90.0667 -0.493235 0
89.8186 -0.283981 0
89.6489 0.382594 0
90.5686 0.645131 0
79.5382 3.83728 0
80.0509 2.56167 0
79.0812 -0.821418 0
78.926 -0.29128 0
78.781 0.264278 0
79.4434 0.887303 0
76.3954 -0.870167 0
77.3947 -1.34195 0
91.7211 -3.70242 0
89.267 -2.09012 0
88.7474 3.77785 0
92.1086 3.76943 0
77.8096 -0.863837 0
77.8708 -0.140571 0
77.8047 0.200228 0
77.883 0.841391 0
78.127 0.0876462 0
78.1402 0.622387 0
78.2784 -0.344191 0
78.4111 -0.0208037 0
75.2233 -0.266586 0
72.8737 0.150943 0
84.7096 3.22373 0
88.6977 2.99623 0
87.4114 -2.52506 0
88.0122 -4.99373 0
77.4111 2.05829 0
76.9931 1.1449 0
77.8531 -0.024673 0
77.5929 -0.0483983 0
80.0331 6.8182 0
78.0335 4.04305 0
79.7226 -4.28847 0
78.6955 -8.0821 0
77.2626 0.78371 0
77.7224 0.424015 0
89.7573 0.524838 0
90.1106 1.14583 0
89.7835 -1.04857 0
89.7473 -0.202847 0
87.3475 -0.122968 0
87.5934 -0.0830252 0
87.5614 0.0710239 0
87.4247 0.408519 0
92.2246 0.46842 0
91.0957 1.41284 0
91.1216 -0.579282 0
92.3644 -0.731867 0