# vtk DataFile Version 3.0
Unstructured Grid for Triangles
ASCII
DATASET UNSTRUCTURED_GRID
POINTS 29612 DOUBLE
-2.72397e-05 1.23686e-06 0
-2.95789e-05 9.5838e-07 0
-2.77865e-05 -3.1235e-07 0
0.0002024 5e-05 0
0.000203975 4.9875e-05 0
0.000205 5e-05 0
0.000203975 -4.9875e-05 0
0.0002024 -5e-05 0
0.000205 -5e-05 0
0.00020295 4.975e-05 0
0.00020295 -4.975e-05 0
0.000201925 4.9625e-05 0
0.000201925 -4.9625e-05 0
-5.29747e-05 -4.79887e-05 0
-5.5e-05 -5e-05 0
-5.24e-05 -5e-05 0
-5.05983e-05 -4.84325e-05 0
-4.98e-05 -5e-05 0
-4.72e-05 -5e-05 0
-4.83864e-05 -4.87761e-05 0
-4.46e-05 -5e-05 0
-4.59e-05 -4.84239e-05 0
-4.29453e-05 -4.24878e-05 0
-4.47486e-05 -4.20717e-05 0
-4.41829e-05 -4.36609e-05 0
-5.12578e-05 -4.62101e-05 0
-4.93077e-05 -4.53594e-05 0
-5.0706e-05 -4.39006e-05 0
-4.19243e-05 -4.77545e-05 0
-4.40307e-05 -4.71837e-05 0
-4.3691e-05 -4.86724e-05 0
-5.16129e-05 -4.20948e-05 0
-4.95355e-05 -4.15432e-05 0
-5.11646e-05 -4.0128e-05 0
-3.94697e-05 -4.81197e-05 0
-4.06302e-05 -4.55143e-05 0
-5.37257e-05 -3.88197e-05 0
-5.31099e-05 -4.07297e-05 0
-5.23982e-05 -3.88328e-05 0
-3.70063e-05 -4.72956e-05 0
-3.68e-05 -5e-05 0
-3.5308e-05 -4.85302e-05 0
-5.072e-05 -3.7867e-05 0
-4.85506e-05 -3.83975e-05 0
-4.90949e-05 -3.59622e-05 0
-3.37127e-05 -4.84331e-05 0
-3.16e-05 -5e-05 0
-3.26495e-05 -4.7415e-05 0
-5.5e-05 -3.5e-05 0
-5.31201e-05 -3.70361e-05 0
-5.28367e-05 -3.46817e-05 0
-3.63898e-05 -4.48809e-05 0
-3.83315e-05 -4.60336e-05 0
-3.26269e-06 -4.15503e-05 0
-5.99662e-06 -4.09556e-05 0
-5.46944e-06 -4.29488e-05 0
-5.29747e-05 4.79887e-05 0
-5.5e-05 5e-05 0
-5.5e-05 4.75e-05 0
-5.5e-05 4.5e-05 0
-5.34834e-05 4.29171e-05 0
-5.26943e-05 4.42611e-05 0
-5.34026e-05 4.60176e-05 0
-5.31099e-05 4.07297e-05 0
-5.11672e-05 4.01178e-05 0
-5.16129e-05 4.20948e-05 0
-5.24e-05 5e-05 0
-5.05983e-05 4.84325e-05 0
-5.31201e-05 3.70361e-05 0
-5.072e-05 3.7867e-05 0
-5.23982e-05 3.88328e-05 0
-4.8341e-05 4.69132e-05 0
-4.83679e-05 4.87539e-05 0
-5.28367e-05 3.46817e-05 0
-5.5e-05 3.25e-05 0
-5.25657e-05 3.28474e-05 0
-4.98e-05 5e-05 0
-5.30382e-05 3.125e-05 0
-4.19243e-05 4.77545e-05 0
-4.40015e-05 4.7335e-05 0
-4.25917e-05 4.63678e-05 0
-4.35138e-05 2.62661e-05 0
-4.14982e-05 2.74462e-05 0
-4.35654e-05 2.85217e-05 0
-4.59e-05 4.84239e-05 0
-4.36852e-05 4.87027e-05 0
-4.46e-05 5e-05 0
-5.33308e-05 2.92503e-05 0
-5.5e-05 2.75e-05 0
-5.23377e-05 2.76953e-05 0
-4.25282e-05 4.46352e-05 0
-4.09368e-05 4.35728e-05 0
-4.06302e-05 4.55143e-05 0
0.0002009 4.95e-05 0
0.0001998 5e-05 0
0.000199875 4.9375e-05 0
0.00019885 4.925e-05 0
0.0001972 5e-05 0
0.000197825 4.9125e-05 0
0.0001968 4.9e-05 0
0.000195775 4.8875e-05 0
0.0001946 5e-05 0
0.00019475 4.875e-05 0
0.000193725 4.8625e-05 0
0.000192 5e-05 0
0.0001927 4.85e-05 0
0.000191675 4.8375e-05 0
0.00019065 4.825e-05 0
0.0001894 5e-05 0
0.000189625 4.8125e-05 0
0.0001886 4.8e-05 0
0.0001868 5e-05 0
0.000187575 4.7875e-05 0
0.00018655 4.775e-05 0
0.000185515 4.8575e-05 0
0.0001842 5e-05 0
0.0001845 4.75e-05 0
0.000185525 4.7625e-05 0
0.000182564 4.829e-05 0
0.0001816 5e-05 0
0.00018245 4.725e-05 0
0.000183475 4.7375e-05 0
0.000181425 4.7125e-05 0
0.000180295 4.82657e-05 0
0.000179 5e-05 0
0.000179375 4.6875e-05 0
0.0001804 4.7e-05 0
0.000178168 4.80619e-05 0
0.0001764 5e-05 0
0.000177325 4.6625e-05 0
0.00017835 4.675e-05 0
0.000176428 4.76631e-05 0
0.0001763 4.65e-05 0
0.0001738 5e-05 0
0.0001751 4.84164e-05 0
0.000175275 4.6375e-05 0
0.000174025 4.75632e-05 0
0.0001712 5e-05 0
0.000172615 4.78449e-05 0
0.0001722 4.6e-05 0
0.000173225 4.6125e-05 0
0.00017015 4.575e-05 0
0.000171243 4.7381e-05 0
0.000169554 4.79999e-05 0
0.0001686 5e-05 0
0.000167507 4.79751e-05 0
0.000168498 4.64861e-05 0
0.000166 5e-05 0
0.00016558 4.71459e-05 0
0.000167135 4.62887e-05 0
0.0001681 4.55e-05 0
0.00016605 4.525e-05 0
0.000167075 4.5375e-05 0
0.000164059 4.61599e-05 0
0.00016394 4.79552e-05 0
0.000162881 4.6615e-05 0
0.000162975 4.4875e-05 0
0.000165025 4.5125e-05 0
0.000164 4.5e-05 0
0.000161754 4.58641e-05 0
0.000161722 4.78101e-05 0
0.000159956 4.58294e-05 0
0.000160925 4.4625e-05 0
0.00016195 4.475e-05 0
0.000157667 4.60322e-05 0
0.000158875 4.4375e-05 0
0.000159194 4.80155e-05 0
0.0001599 4.45e-05 0
0.00015785 4.425e-05 0
0.000155808 4.56757e-05 0
0.000155647 4.76701e-05 0
0.000154059 4.66642e-05 0
0.000153756 4.50083e-05 0
0.000154839 4.50446e-05 0
0.000156825 4.4125e-05 0
0.000151954 4.80508e-05 0
0.000154052 4.8477e-05 0
0.000153 5e-05 0
0.000154775 4.3875e-05 0
0.000152142 4.56625e-05 0
0.000152821 4.45753e-05 0
0.00015375 4.375e-05 0
0.0001504 5e-05 0
0.000149644 4.85168e-05 0
0.000151787 4.43178e-05 0
0.000152725 4.3625e-05 0
0.000150675 4.3375e-05 0
0.0001517 4.35e-05 0
0.000148119 4.50887e-05 0
0.000148072 4.75757e-05 0
0.000146584 4.63516e-05 0
0.000150008 4.6396e-05 0
0.000149351 4.4543e-05 0
0.00015061 4.46252e-05 0
0.0001476 4.3e-05 0
0.000148625 4.3125e-05 0
0.000146492 4.82975e-05 0
0.000144888 4.73562e-05 0
0.000146676 4.44259e-05 0
0.000145255 4.53656e-05 0
0.000145652 4.38669e-05 0
0.000141401 4.79821e-05 0
0.0001426 5e-05 0
0.00014 5e-05 0
0.000144374 4.38862e-05 0
0.00014555 4.275e-05 0
0.0001435 4.25e-05 0
0.000144525 4.2625e-05 0
0.000142746 4.38121e-05 0
0.000141288 4.43191e-05 0
0.000141707 4.32778e-05 0
0.00013921 4.38992e-05 0
0.000140355 4.5932e-05 0
0.000138302 4.5922e-05 0
0.000142912 4.58869e-05 0
0.000140592 4.30037e-05 0
0.00014145 4.225e-05 0
0.000136458 4.5869e-05 0
0.000137106 4.4063e-05 0
0.0001394 4.2e-05 0
0.000138259 4.28915e-05 0
0.000137484 4.77094e-05 0
0.000139166 4.78902e-05 0
0.00013586 4.78984e-05 0
0.000133449 4.78649e-05 0
0.000134717 4.61848e-05 0
0.000137256 4.25134e-05 0
0.000135323 4.24541e-05 0
0.000136325 4.1625e-05 0
0.000136122 4.2876e-05 0
0.000131206 4.47284e-05 0
0.000133168 4.56738e-05 0
0.000131773 4.65243e-05 0
0.000134756 4.40343e-05 0
0.000132747 4.36463e-05 0
0.000133483 4.26786e-05 0
0.000131081 4.1867e-05 0
0.000132382 4.22815e-05 0
0.000131507 4.3122e-05 0
0.000131059 4.80123e-05 0
0.00013325 4.125e-05 0
0.00012915 4.075e-05 0
0.00012982 4.18199e-05 0
0.000128915 4.26216e-05 0
0.000126366 4.47574e-05 0
0.000127331 4.30908e-05 0
0.000128781 4.44872e-05 0
0.000125336 4.28376e-05 0
0.000130218 4.31077e-05 0
0.000127894 4.16344e-05 0
0.000124774 4.69608e-05 0
0.000127668 4.64148e-05 0
0.000126591 4.8331e-05 0
0.000126722 4.18415e-05 0
0.000125768 4.11931e-05 0
0.000124326 4.13546e-05 0
0.00012505 4.025e-05 0
0.000122408 4.50118e-05 0
0.000120276 4.47432e-05 0
0.00012139 4.32235e-05 0
0.000124336 4.44132e-05 0
0.000123056 4.27595e-05 0
0.000122977 4.09049e-05 0
0.00012185 4.69217e-05 0
0.000122676 4.85947e-05 0
0.000120525 4.86094e-05 0
0.000121479 4.13153e-05 0
0.000119547 4.24221e-05 0
0.000120249 4.07448e-05 0
0.000119925 3.9625e-05 0
0.000119346 4.06114e-05 0
0.000117479 4.47279e-05 0
0.000114726 4.45259e-05 0
0.00011571 4.27814e-05 0
0.000119443 4.66611e-05 0
0.000117447 4.21596e-05 0
0.000118421 4.0752e-05 0
0.000117409 4.04437e-05 0
0.000116775 4.70073e-05 0
0.0001179 4.855e-05 0
0.000115473 4.84802e-05 0
0.00011685 3.925e-05 0
0.000117875 3.9375e-05 0
0.000115454 4.00551e-05 0
0.0001148 3.9e-05 0
0.000115825 3.9125e-05 0
0.000111704 4.23398e-05 0
0.000113786 4.26731e-05 0
0.000112589 4.43871e-05 0
0.000113234 4.06671e-05 0
0.000114754 4.13371e-05 0
0.0001106 4.42326e-05 0
0.000109703 4.24261e-05 0
0.00011275 3.875e-05 0
0.000113775 3.8875e-05 0
0.000110211 4.80875e-05 0
0.000108244 4.71951e-05 0
0.000109312 4.58413e-05 0
0.000111755 3.99116e-05 0
0.00010944 3.92972e-05 0
0.000110415 4.05876e-05 0
0.000108839 4.07536e-05 0
0.000106472 4.76905e-05 0
0.000107274 4.57868e-05 0
0.000108011 3.92415e-05 0
0.000106885 4.04365e-05 0
0.000106625 3.88708e-05 0
0.000105286 4.19254e-05 0
0.000105055 3.95469e-05 0
0.000104215 4.39764e-05 0
0.000106346 4.40629e-05 0
0.000100945 4.51249e-05 0
0.000102825 4.5614e-05 0
0.000101189 4.68452e-05 0
0.000107625 3.8125e-05 0
0.000105575 3.7875e-05 0
0.0001066 3.8e-05 0
0.000103352 4.76905e-05 0
0.000101803 4.8465e-05 0
0.000103685 3.89398e-05 0
0.00010245 3.8825e-05 0
0.000103525 3.7625e-05 0
0.000101092 3.99779e-05 0
0.000101267 3.82619e-05 0
0.000101382 4.2025e-05 0
0.000103187 4.05286e-05 0
0.000103359 4.24605e-05 0
9.87383e-05 4.5447e-05 0
9.99411e-05 4.35161e-05 0
9.744e-05 4.33145e-05 0
0.00010045 3.725e-05 0
0.000101475 3.7375e-05 0
9.70845e-05 4.65215e-05 0
9.52614e-05 4.67664e-05 0
9.61768e-05 4.49944e-05 0
9.9729e-05 3.87704e-05 0
9.78901e-05 3.9598e-05 0
9.85823e-05 3.81492e-05 0
9.62289e-05 3.93709e-05 0
9.74259e-05 3.81279e-05 0
9.7375e-05 3.6875e-05 0
9.63045e-05 3.76631e-05 0
9.58e-05 5e-05 0
9.32e-05 5e-05 0
9.47542e-05 4.8457e-05 0
9.49675e-05 3.85246e-05 0
9.36214e-05 3.89472e-05 0
9.40006e-05 3.74906e-05 0
9.66411e-05 4.12573e-05 0
9.44241e-05 4.07079e-05 0
9.03569e-05 4.24993e-05 0
9.21701e-05 4.02409e-05 0
9.27439e-05 4.27744e-05 0
8.89795e-05 4.09067e-05 0
9.03071e-05 4.0248e-05 0
9.25447e-05 3.77721e-05 0
9.3275e-05 3.6375e-05 0
9.07708e-05 3.87127e-05 0
9.11303e-05 3.70839e-05 0
9.11933e-05 4.55145e-05 0
9.30678e-05 4.73279e-05 0
9.11886e-05 4.82603e-05 0
8.87724e-05 3.88076e-05 0
8.99595e-05 3.75116e-05 0
9.02e-05 3.6e-05 0
8.89241e-05 3.6954e-05 0
8.36977e-05 4.59472e-05 0
8.36223e-05 4.83578e-05 0
8.20467e-05 4.74142e-05 0
8.71227e-05 4.03557e-05 0
8.61e-05 3.55e-05 0
8.68368e-05 3.65714e-05 0
8.5484e-05 3.6588e-05 0
8.47735e-05 4.02845e-05 0
8.23121e-05 4.21599e-05 0
8.26582e-05 3.98147e-05 0
8.46943e-05 4.2454e-05 0
8.38832e-05 3.78613e-05 0
8.35569e-05 3.63808e-05 0
8.44098e-05 3.6291e-05 0
8.5075e-05 3.5375e-05 0
8.51465e-05 4.77163e-05 0
8.3025e-05 3.5125e-05 0
8.22824e-05 3.68659e-05 0
8.1446e-05 3.57362e-05 0
8.05884e-05 3.71794e-05 0
7.53471e-05 4.77524e-05 0
7.38313e-05 4.73927e-05 0
7.39102e-05 4.61526e-05 0
7.9826e-05 3.58588e-05 0
7.88607e-05 3.76287e-05 0
7.81733e-05 3.57987e-05 0
8.16783e-05 3.84471e-05 0
8.07975e-05 4.04095e-05 0
7.52138e-05 4.04775e-05 0
7.67682e-05 4.17043e-05 0
7.49617e-05 4.21803e-05 0
7.52903e-05 3.84008e-05 0
7.38293e-05 3.93136e-05 0
[...]
CELL_DATA 58684
VECTORS velocity DOUBLE
74.0345 0.337065 0
85.572 -0.000175313 0
85.5438 0.000133871 0
85.5773 -0.00260114 0
85.5484 0.00286497 0
85.5832 -0.00215548 0
85.5544 0.00219637 0
77.8628 -0.00278579 0
77.8696 -0.0235181 0
77.9482 -0.00398671 0
78.042 -0.00688365 0
78.0916 -0.4072 0
77.8906 -0.109742 0
78.165 -0.134184 0
77.8736 -0.185386 0
78.3422 -0.171909 0
77.8628 -0.111553 0
78.6692 -0.156669 0
77.9099 -0.317042 0
79.1471 -0.113687 0
77.8771 -0.113682 0
78.6435 -0.367577 0
84.9731 -2.17344 0
77.8558 0.011684 0
77.8526 0.0512887 0
77.8557 0.0249404 0
77.8758 0.140686 0
77.8692 0.0225274 0
77.8748 0.188284 0
77.9473 0.0492423 0
77.8732 0.144537 0
77.9107 0.0321212 0
77.8347 0.144732 0
78.2289 0.163345 0
77.947 1.12918 0
78.1004 0.0674559 0
77.8859 0.17645 0
78.2969 0.354298 0
85.5913 0.00151833 0
85.5965 -0.000348772 0
85.6061 -0.00607085 0
85.6097 -0.00197876 0
85.6208 -0.000845756 0
85.629 -0.00583346 0
85.6323 -0.00678355 0
85.6369 -0.00209652 0
85.646 -0.000496151 0
85.6528 -0.00764309 0
85.655 -0.00447672 0
85.6659 -0.00145644 0
85.674 -0.00875075 0
85.6763 -0.00851708 0
85.6798 -0.00382236 0
85.6891 -0.000992689 0
85.6953 -0.00950445 0
85.6968 -0.0068287 0
85.7075 -0.00232339 0
85.7161 -0.0116878 0
85.7183 -0.0110494 0
85.7212 -0.00551406 0
85.733 -0.000711089 0
85.7343 -0.0127355 0
85.7446 -0.00868544 0
85.757 -0.000564892 0
85.7574 -0.0160717 0
85.761 -0.0124037 0
85.7699 -0.011069 0
85.7785 -0.00117208 0
85.7799 -0.0152168 0
85.7886 -0.0117417 0
85.7999 -0.00231602 0
85.7998 -0.0174103 0
85.8064 -0.0125273 0
85.8144 -0.0213452 0
85.8262 -0.00100745 0
85.8281 -0.0162111 0
85.8348 -0.0105688 0
85.85 -0.00200335 0
85.8511 -0.0217709 0
85.8755 -0.0184545 0
85.8556 -0.0173393 0
85.878 -0.000991386 0
85.8872 -0.0115614 0
85.8802 -0.0227146 0
85.9131 -0.0137086 0
85.9071 -0.018217 0
85.9021 -0.025625 0
85.9152 -0.0302401 0
85.9411 -0.019546 0
85.9557 -0.0278378 0
85.9304 -0.0233271 0
85.9482 -0.0335851 0
85.9702 -0.0254881 0
85.9644 -0.0263231 0
85.9735 -0.0359132 0
86.0089 -0.0345527 0
85.992 -0.0290903 0
85.998 -0.0379717 0
86.0178 -0.044773 0
86.0271 -0.0342152 0
86.0543 -0.0405938 0
86.0288 -0.0352619 0
86.0585 -0.0113131 0
86.0578 -0.0454954 0
86.0797 -0.0436187 0
86.07 -0.0462464 0
86.085 -0.0141855 0
86.086 -0.0498167 0
86.1034 -0.0542635 0
86.1275 -0.0314555 0
86.1229 -0.0338508 0
86.1068 -0.0457649 0
86.1426 -0.0590859 0
86.1445 -0.0243552 0
86.1741 -0.0547974 0
86.1619 -0.0355277 0
86.2027 -0.00290241 0
86.1853 -0.0623835 0
86.2014 -0.0696025 0
86.2354 -0.0629786 0
86.2584 -0.0475356 0
86.211 -0.0379795 0
86.2449 -0.0719331 0
86.286 -0.0487849 0
86.2781 -0.0756839 0
86.2546 -0.0262257 0
86.292 -0.0688785 0
86.311 -0.026 0
86.3056 -0.0799705 0
86.3341 -0.09218 0
86.3735 -0.0552442 0
86.364 -0.0763976 0
86.3389 -0.035644 0
86.4056 -0.100592 0
86.3526 -0.0285478 0
86.3828 -0.0996433 0
86.4528 -0.113558 0
86.4687 -0.0801533 0
86.4868 -0.0983736 0
86.4413 -0.095317 0
86.4707 -0.104537 0
86.441 -0.0457204 0
86.5166 -0.121319 0
86.5427 -0.133632 0
86.5805 -0.088549 0
86.5002 -0.0639098 0
86.5401 -0.114599 0
86.5619 -0.135951 0
86.5267 -0.0270175 0
86.6342 -0.147316 0
86.6466 -0.162556 0
86.6951 -0.100758 0
86.6042 -0.0873188 0
86.6636 -0.136274 0
86.6857 -0.164593 0
86.6292 -0.0290774 0
86.704 -0.189954 0
86.7565 -0.204575 0
86.7762 -0.145603 0
86.7697 -0.167578 0
86.8266 -0.155434 0
86.8014 -0.212982 0
86.8093 -0.0559609 0
86.8123 -0.200304 0
86.8907 -0.206382 0
86.8685 -0.0680382 0
86.9609 -0.246483 0
86.9907 -0.228154 0
86.9719 -0.144559 0
87.0418 -0.111858 0
86.964 -0.251887 0
87.0031 -0.277825 0
87.0122 -0.0569232 0
87.0813 -0.283449 0
87.1341 -0.292135 0
87.0531 -0.209673 0
87.123 -0.13239 0
87.1634 -0.174872 0
87.1652 -0.333712 0
87.2147 -0.114492 0
87.2362 -0.312367 0
87.2707 -0.307347 0
87.2951 -0.359448 0
87.2517 -0.00452072 0
87.4018 -0.35943 0
87.2839 -0.277249 0
87.4134 -0.25148 0
87.4862 -0.293998 0
87.4523 -0.398494 0
87.5135 -0.40309 0
87.375 -0.0907587 0
87.5544 -0.391607 0
87.5814 -0.452193 0
87.5962 -0.435199 0
87.7019 -0.101583 0
87.5818 -0.34647 0
87.7571 -0.501358 0
87.8138 -0.381294 0
87.7328 -0.321224 0
87.8208 -0.530628 0
87.8037 -0.523197 0
87.6884 -0.090571 0
87.9138 -0.583513 0
87.9528 -0.547567 0
88.1482 -0.105095 0
88.0574 -0.60253 0
87.8967 -0.4203 0
88.1639 -0.385245 0
88.2296 -0.497484 0
88.1158 -0.547176 0
88.1404 -0.652697 0
88.2087 -0.236513 0
88.3226 -0.629573 0
88.2733 -0.726584 0
88.4728 -0.737635 0
88.4381 -0.0105159 0
88.4268 -0.609427 0
88.4866 -0.764024 0
88.3264 -0.189495 0
88.5532 -0.804784 0
88.6551 -0.463276 0
88.6005 -0.841746 0
88.8307 -0.259679 0
88.7824 -0.72411 0
88.7445 -0.853966 0
88.6902 -0.132212 0
88.8923 -0.881273 0
89.0855 -0.860032 0
88.9263 -0.734465 0
88.9764 -0.442252 0
89.1183 -0.989838 0
89.1398 -0.38808 0
89.3142 -0.0669555 0
89.0656 -0.777846 0
89.2424 -0.979534 0
89.3339 -1.05342 0
89.3785 -0.329818 0
89.4923 -0.908106 0
89.6561 -0.994347 0
89.4659 -0.112724 0
89.8142 -0.967037 0
89.7194 -1.08178 0
89.5798 -0.802063 0
89.6526 -0.386867 0
89.7716 -0.45193 0
89.8858 -1.08764 0
89.8427 -0.00589563 0
89.9989 -1.16111 0
90.1438 -1.09956 0
90.0964 -1.15914 0
90.0984 -0.251586 0
90.2196 -0.943788 0
90.4842 -0.953149 0
90.0768 -0.00395354 0
90.5763 -1.13518 0
90.7714 -0.96152 0
90.4015 -0.696726 0
90.2339 -0.287597 0
90.7625 -1.08783 0
90.4028 -0.355056 0
90.2337 -0.016165 0
90.6988 -0.728393 0
91.0428 -0.984852 0
91.2194 -0.916169 0
90.4112 -0.0725123 0
91.1786 -0.620572 0
91.3145 -0.81695 0
90.2876 0.0330988 0
91.4628 -0.802818 0
91.6619 -0.666017 0
91.2806 -0.225125 0
90.0619 0.0109759 0
91.8304 -0.432038 0
90.9664 0.212461 0
91.2062 0.324729 0
91.704 -0.277861 0
91.481 -0.0125967 0
92.1797 -0.0288275 0
90.1935 0.382614 0
92.162 -0.134678 0
91.716 0.445677 0
92.3789 0.527481 0
90.105 0.111989 0
92.3423 1.24166 0
92.115 1.47422 0
88.7665 0.199823 0
92.568 0.931664 0
92.4719 1.41595 0
90.1191 1.50469 0
89.8608 0.718764 0
91.3969 1.14794 0
92.3729 1.95529 0
89.0172 0.334364 0
91.8811 2.85155 0
92.553 2.20343 0
92.5669 2.43277 0
88.2712 1.4296 0
90.9094 2.97214 0
91.9401 3.24307 0
88.2503 0.236553 0
91.7546 3.74759 0
91.4091 3.61693 0
90.4485 5.2448 0
85.9992 0.39775 0
91.5784 4.95246 0
89.5946 3.5685 0
87.7352 1.57897 0
87.3588 3.00601 0
91.346 5.45901 0
90.2175 5.89664 0
86.4362 0.612797 0
90.2866 6.72604 0
85.5623 -0.00106931 0
85.5679 0.000279711 0
85.5768 0.00553715 0
85.5803 0.00140396 0
85.5907 0.000857849 0
85.5986 0.00555198 0
85.6016 0.00566244 0
85.6065 0.00128228 0
85.615 0.000573806 0
85.6217 0.00742398 0
85.6238 0.00432276 0
85.6342 0.0014322 0
85.642 0.008224 0
85.6443 0.0081457 0
85.6477 0.00366489 0
85.6569 0.000983559 0
85.663 0.00930748 0
85.6647 0.00645793 0
85.6754 0.00231181 0
85.6839 0.0117202 0
85.6861 0.0109923 0
85.6983 0.0140659 0
85.689 0.00543174 0
85.7076 0.00940012 0
85.7214 0.0145565 0
85.7123 0.00887339 0
85.7291 0.0129401 0
85.7382 0.0113408 0
85.7453 0.0180007 0
85.7344 0.00890391 0
85.7568 0.0119516 0
85.765 0.0199461 0
85.7567 0.00949785 0
85.7833 0.0225344 0
85.7875 0.0196534 0
85.7939 0.0158187 0
85.7797 0.011848 0
85.7973 0.016755 0
85.816 0.0162115 0
85.8041 0.0109039 0
85.8335 0.0270613 0
85.8345 0.0100483 0
85.8458 0.0187949 0
85.8295 0.0142543 0
85.8506 0.0231086 0
85.8731 0.0260892 0
85.8837 0.0140689 0
85.8702 0.0239241 0
85.893 0.0286787 0
85.8967 0.0305485 0
85.9235 0.0158682 0
85.9124 0.0197629 0
85.9268 0.0280779 0
85.942 0.039369 0
85.9524 0.0189835 0
85.9567 0.0320434 0
85.966 0.0412295 0
85.9834 0.0245337 0
85.9629 0.0291608 0
85.99 0.0458384 0
85.9933 0.0430221 0
86.0047 0.0277824 0
86.0167 0.0199225 0
86.0264 0.0402686 0
85.9658 0.0138651 0
86.0421 0.0466759 0
86.0757 0.0550633 0
86.059 0.0467467 0
86.0447 0.0284156 0
86.0893 0.0554206 0
86.0967 0.0494845 0
86.1185 0.0245579 0
86.0802 0.046402 0
86.1221 0.0520647 0
86.1393 0.0606492 0
86.0889 0.0148593 0
86.1281 0.0432837 0
86.1759 0.06995 0
86.1378 0.0359413 0
86.1876 0.0627182 0
86.2183 0.0748009 0
86.1947 0.0550318 0
86.2138 0.0225849 0
86.2294 0.0653436 0
86.2474 0.0771996 0
86.2295 0.0202256 0
86.272 0.0850041 0
86.2397 0.0610669 0
86.2969 0.071463 0
86.2564 0.0482509 0
86.3068 0.0923335 0
86.3686 0.112617 0
86.3282 0.0282372 0
86.3267 0.0768273 0
86.3944 0.119956 0
86.3727 0.0849551 0
86.3152 0.0346897 0
86.4112 0.111407 0
86.435 0.118475 0
86.3958 0.0291432 0
86.442 0.0536946 0
86.4696 0.10412 0
86.4864 0.138245 0
86.4164 0.0734513 0
86.518 0.135291 0
86.5399 0.145041 0
86.545 0.0496903 0
86.5206 0.0899644 0
86.5908 0.16324 0
86.5854 0.13935 0
86.4856 0.0463589 0
86.6112 0.156953 0
86.6618 0.168573 0
86.6377 0.0671945 0
86.627 0.14394 0
86.7211 0.202502 0
86.7086 0.154846 0
86.5814 0.0490664 0
86.7463 0.189428 0
86.8176 0.232498 0
86.6989 0.0665967 0
86.8049 0.1848 0
86.7837 0.0859481 0
86.8492 0.194783 0
86.7608 0.109506 0
86.8801 0.247075 0
86.9399 0.248226 0
86.8451 0.0684234 0
86.9307 0.242585 0
87.0107 0.28087 0
86.9698 0.071756 0
86.8998 0.204204 0
87.0032 0.240433 0
87.0614 0.285088 0
86.9412 0.0434995 0
87.0748 0.260024 0
87.1793 0.338509 0
87.1603 0.284015 0
87.0952 0.0856852 0
87.2373 0.29728 0
87.0458 0.109161 0
87.0773 0.250294 0
87.2258 0.328917 0
87.3387 0.373262 0
87.3496 0.382757 0
87.0648 0.00616261 0
87.4514 0.436186 0
87.4643 0.424173 0
87.4927 0.375782 0
87.4267 0.184498 0
87.5374 0.200506 0
87.5068 0.420305 0
87.2699 0.114131 0
87.6344 0.473717 0
87.6252 0.465793 0
87.6341 0.418844 0
87.5234 0.121624 0
87.7191 0.465927 0
87.8472 0.582044 0
87.7041 0.218305 0
87.6451 0.231101 0
87.8074 0.471319 0
87.978 0.605091 0
87.5605 0.143184 0
88.0186 0.640304 0
88.0606 0.622684 0
87.8724 0.122169 0
88.2078 0.714026 0
88.2432 0.684788 0
88.32 0.591572 0
88.0933 0.259837 0
88.0577 0.29409 0
88.2289 0.662386 0
87.9555 0.189723 0
88.4016 0.790669 0
88.4588 0.745828 0
88.4632 0.689225 0
88.19 0.104554 0
88.6419 0.812077 0
88.6619 0.83037 0
88.499 0.466376 0
88.7682 0.654816 0
88.5199 0.378478 0
88.7217 0.796588 0
88.4011 0.240211 0
88.8875 0.928539 0
88.9153 0.897536 0
88.4461 0.192061 0
88.9945 0.828265 0
89.1864 0.954713 0
89.0939 0.932666 0
88.9856 0.217632 0
89.4093 0.999327 0
89.4567 1.06801 0
88.9284 0.645308 0
89.3534 0.792251 0
88.998 0.393667 0
89.666 1.12479 0
89.1943 0.122495 0
89.7357 1.09262 0
89.7335 1.03447 0
88.9994 0.0970361 0
89.6671 0.937487 0
90.0787 1.10725 0
90.1788 1.11668 0
89.6254 0.281852 0
90.2602 1.08886 0
90.3127 1.16232 0
89.59 0.707426 0
90.3345 0.763086 0
89.8004 0.272468 0
90.4917 1.15914 0
89.8342 0.100397 0
90.6514 1.07967 0
90.7488 1.06227 0
89.6468 0.0722066 0
90.5677 0.87893 0
91.0624 0.986689 0
91.2377 0.919232 0
90.1204 0.176136 0
91.0663 0.860237 0
91.3888 0.867011 0
90.6688 0.746351 0
91.1835 0.424342 0
90.2203 0.108965 0
91.147 0.775773 0
90.2477 0.0392201 0
91.6529 0.75433 0
91.7472 0.60118 0
90.1298 0.0394973 0
91.4503 0.285913 0
91.9127 0.307563 0
92.1126 0.167557 0
90.2857 -0.100907 0
92.2103 -0.0428467 0
92.2614 -0.182233 0
90.4472 -0.280526 0
92.2787 -0.214531 0
91.4758 -0.664027 0
90.702 -0.100295 0
90.4985 -0.00378948 0
92.424 -0.514526 0
92.1855 -0.914827 0
92.6254 -1.09976 0
90.1773 -0.0074207 0
91.904 -1.36762 0
92.6345 -1.8472 0
90.1505 -0.128517 0
91.7319 -1.33268 0
92.6144 -2.39386 0
91.1846 -1.80194 0
90.1423 -0.671614 0
92.4245 -2.74473 0
92.2865 -3.03855 0
91.1256 -1.1421 0
90.6022 -3.18865 0
88.5854 -2.61863 0
91.9293 -3.06966 0
88.9742 -0.413876 0
91.9173 -4.03002 0
89.3685 7.31993 0
90.0938 6.55093 0
84.7595 1.93151 0
89.2673 7.27413 0
87.0496 6.6466 0
88.6114 7.90254 0
85.3377 0.760188 0
87.6398 8.09989 0
86.4811 7.96492 0
84.1107 0.963003 0
86.551 8.49295 0
91.8301 -4.44851 0
89.2089 -0.255496 0
91.5658 -4.79336 0
90.3353 -5.18258 0
89.7805 -4.46256 0
88.3419 -0.272193 0
90.5745 -5.77681 0
85.2695 7.75144 0
89.9269 -7.05 0
88.103 -1.41176 0
89.6071 -6.81312 0
88.7494 -7.77359 0
82.9771 2.36593 0
88.3165 -7.62548 0
89.5184 -4.2713 0
88.8062 -6.91395 0
86.9631 -5.11259 0
86.0256 -0.842487 0
87.8758 -7.01494 0
87.0921 -7.42015 0
84.648 8.17848 0
87.1616 -7.43379 0
86.8482 -0.457853 0
86.143 -7.77787 0
85.6314 -8.48262 0
85.3577 -0.566629 0
84.5546 -8.61986 0
85.062 -6.33113 0
83.2288 -0.656232 0
83.5491 -8.7685 0
83.6407 -4.86257 0
85.3256 -3.83777 0
84.0966 -7.50976 0
82.9995 -7.85446 0
85.6358 4.40263 0
82.091 0.530438 0
85.052 2.94278 0
83.73 -0.0757123 0
82.4533 -8.51825 0
84.2781 7.74476 0
81.8258 0.384567 0
83.7191 6.586 0
81.599 -8.3794 0
83.3077 -1.71532 0
80.9193 -6.1137 0
83.7004 8.82429 0
80.7366 2.02051 0
83.6001 8.74819 0
81.4245 7.28555 0
81.0202 0.411556 0
82.0392 7.66608 0
81.5149 -6.36575 0
82.832 -0.47273 0
80.7557 -8.50615 0
80.7762 -8.2719 0
82.4055 8.23413 0
80.5116 7.84284 0
80.3501 0.042934 0
81.5549 8.10097 0
79.7506 5.0691 0
80.3415 2.28169 0
79.843 -8.45066 0
80.8039 -1.09453 0
80.1754 -8.32601 0
79.3869 8.29276 0
79.2313 -7.71937 0
79.9589 -1.07442 0
79.5775 -3.39114 0
77.9856 -7.41123 0
81.0102 -4.10114 0
77.8482 -7.16751 0
79.4763 -0.290632 0
76.9427 -6.84611 0
79.135 2.85809 0
79.7382 0.460532 0
78.9757 6.96211 0
79.1543 0.117704 0
78.7611 8.16933 0
78.4845 7.66348 0
78.8492 0.185709 0
77.7412 6.70525 0
78.6429 0.133574 0
78.3288 -6.40729 0
79.4729 -0.574266 0
79.5449 6.03346 0
77.8631 0.732937 0
77.3015 6.29502 0
76.8316 -6.80606 0
79.5852 -0.229032 0
75.2185 -5.81958 0
77.8597 -0.440152 0
76.0402 -5.7278 0
78.4293 2.54319 0
77.8527 0.12068 0
79.0544 -5.21261 0
77.854 -0.112705 0
75.3491 -5.39219 0
76.7201 5.67897 0
76.7642 -4.25335 0
77.8629 -0.24076 0
75.6624 -4.61702 0
77.7845 3.13377 0
75.6507 1.98721 0
76.2323 4.90951 0
77.5825 -0.981717 0
75.4994 -5.11667 0
77.7976 0.401931 0
76.1332 6.62699 0
77.5783 -2.37063 0
77.855 -0.0838288 0
75.1767 -4.61644 0
75.8704 5.91973 0
77.8005 0.715084 0
75.8445 4.62567 0
75.5626 4.56505 0
77.7904 0.381139 0
74.7739 4.06623 0
74.3206 -4.14396 0
77.8268 -0.293758 0
74.0198 -4.13808 0
76.4379 -1.96936 0
77.8452 -0.199483 0
73.4042 -2.81956 0
74.8243 5.05893 0
77.7207 0.618028 0
76.0956 3.23999 0
74.0183 -2.56034 0
77.7274 -0.311737 0
73.3693 -2.33275 0
73.718 3.72103 0
77.7361 0.263562 0
74.1232 3.5061 0
74.429 2.85906 0
77.8523 0.0341577 0
73.5892 3.04658 0
74.7289 -1.50695 0
77.6594 -0.538216 0
74.0131 -1.3288 0
72.828 -0.845711 0
76.9583 -0.920231 0
72.8792 -0.716677 0
76.6536 0.956699 0
77.776 0.0793257 0
75.7134 2.4248 0
73.3709 2.45295 0
77.6269 0.0590653 0
72.9492 1.5496 0
77.3263 -0.234519 0
77.8345 -0.11249 0
72.878 -0.235416 0
73.4076 -0.0921197 0
77.7975 -0.0657179 0
75.6483 0.305919 0
73.5745 0.524413 0
77.8149 -0.0617292 0
76.9432 -5.64164 0
77.8881 -0.431234 0
77.8376 0.133478 0
77.751 6.86625 0
78.6757 -7.72362 0
81.7337 -0.943382 0
80.1821 0.99495 0
81.3153 8.60547 0
77.7784 0.279538 0
74.2733 4.84005 0
73.7682 -2.82896 0
77.7979 -0.202458 0
77.834 -0.572545 0
77.3527 -3.6584 0
77.8836 0.799693 0
77.896 0.197651 0
77.7867 -0.000233301 0
73.4456 2.04757 0
79.1114 0.464762 0
78.2455 1.57092 0
78.5581 -1.37094 0
80.0034 -0.689057 0
85.4476 -1.27487 0
85.0269 -8.46783 0
86.9015 8.09118 0
84.9902 0.469821 0
77.6208 1.65866 0
79.3066 7.98614 0
78.2576 -7.06529 0
79.0434 -2.30953 0
76.7606 -1.45577 0
74.4153 -0.219331 0
75.909 5.81406 0
77.9318 1.88423 0
77.7751 -1.78508 0
74.5466 -4.62126 0
91.3169 -5.4323 0
88.0319 -0.665752 0
87.6175 0.796609 0
91.7539 4.53322 0
77.8784 -0.813151 0
77.8683 -0.0435317 0
77.8524 0.148472 0
78.7813 0.754207 0
82.7741 0.738295 0
82.4038 4.10551 0
80.9138 -1.98727 0
83.9422 -1.7477 0
81.336 4.89219 0
84.2113 8.30856 0
83.0504 -8.68267 0
82.2225 -1.91907 0
86.2038 1.61617 0
87.2816 5.04528 0
85.8578 -2.79886 0
86.9856 -0.0439108 0
90.1022 -0.256393 0
92.5901 -1.35164 0
92.4137 0.539513 0
89.3174 0.0302039 0
90.22 0.00177546 0
91.7922 0.581903 0
91.5634 -0.567245 0
90.3894 0.0404364 0
78.8353 -1.44308 0
78.3267 -0.571841 0
78.2329 1.23405 0
79.0001 0.946397 0
78.0869 1.22171 0
77.8622 0.238392 0
77.8511 -0.10742 0
78.0235 -1.12241 0
89.0239 0.963962 0
90.2545 1.90706 0
89.3414 -1.1594 0
89.5314 -0.173494 0
75.7848 -0.95721 0
77.8152 -0.154756 0
77.3732 -0.438857 0
77.8255 -0.371913 0
77.8327 0.205833 0
77.7828 0.965528 0
90.8296 1.00631 0
89.9793 0.157344 0
90.1602 -0.00322924 0
90.5363 -1.08756 0
81.3712 -0.0418799 0
80.6238 -2.82116 0
81.6597 1.8036 0
80.4025 0.447924 0
77.5977 4.03252 0
77.037 7.30211 0
76.8034 -6.24483 0
78.0829 -3.2168 0
78.5967 -2.10431 0
77.3607 -2.22499 0
77.6737 4.62724 0
78.0404 2.21956 0
90.3997 0.0514435 0
90.1492 0.144532 0
90.3153 -0.0513752 0
91.2913 0.0930412 0
79.4611 -5.41481 0
80.5292 -5.25454 0
80.1347 4.63413 0
80.6216 8.52436 0
78.8364 -3.972 0
79.9997 -2.31104 0
79.8292 3.1137 0
79.0514 1.53192 0
90.006 1.17718 0
89.4415 0.144021 0
89.7034 -0.0102782 0
89.5589 -1.0545 0
77.1765 1.00961 0
77.8281 0.0307287 0
90.2292 -0.0578192 0
90.8883 -0.35795 0
90.5932 0.250174 0
90.0419 0.0388256 0
78.6574 -0.953145 0
78.208 -1.32759 0
78.9364 1.73745 0
78.1168 0.734874 0
77.874 -0.146114 0
78.0526 -0.69549 0
77.9102 0.314653 0
77.8505 0.136203 0
73.8874 1.70887 0
76.79 1.51936 0
86.6103 -3.16457 0
89.9203 -6.39366 0
90.8739 5.85255 0
86.3218 2.28552 0
76.6111 -2.30349 0
74.5156 -2.89058 0
88.7121 0.159042 0
88.9852 0.896091 0
87.9633 0.0752912 0
88.6064 0.850417 0
89.0003 -0.873712 0
88.8519 -0.142819 0
88.3519 -0.708797 0
88.2849 -0.0132899 0
89.8779 -0.219828 0
89.9801 -0.634176 0
89.829 0.399256 0
89.5783 0.00687834 0
77.8322 0.179666 0
77.6003 0.536119 0
76.2904 0.45218 0
73.9846 0.843418 0
77.7393 -0.247112 0
77.8198 -0.170103 0
77.2695 0.274958 0
77.1818 -0.745574 0
92.424 -2.79922 0
89.2746 -1.7694 0
90.255 2.25071 0
92.5766 1.65437 0
77.9591 -0.0641043 0
78.0385 -0.365977 0
77.8694 0.050882 0
78.1954 0.259941 0
89.2303 -0.209212 0
89.2404 -0.542855 0
89.2763 0.363556 0
88.8595 0.116557 0
87.7613 0.167039 0
87.9515 0.530488 0
87.9656 -0.619509 0
87.8608 -0.150407 0
78.3328 -0.896496 0
79.1713 -2.1269 0
78.6436 1.60856 0
78.3031 1.26975 0
78.9277 2.87335 0
77.422 1.84476 0
77.9636 -1.91729 0
78.5694 -2.78414 0
90.7794 -0.547589 0
91.7226 0.296068 0
91.8957 -0.287448 0
91.2039 0.590153 0
77.5735 -1.14306 0
77.6808 -1.3597 0
77.7247 1.07781 0
77.1953 1.30024 0
87.7622 0.548094 0
87.4589 0.163303 0
87.5248 -0.10229 0
87.6974 -0.466947 0
84.7494 4.27348 0
86.7208 7.14618 0
86.2121 -8.41139 0
85.7765 -3.35517 0
74.9891 -3.41253 0
77.3244 -3.50415 0
84.3795 -3.06571 0
85.0061 -1.09904 0
83.3993 0.453202 0
86.6498 3.1219 0
74.5642 4.61101 0
76.5207 2.72385 0
88.5446 -0.0517351 0
88.7163 -0.552091 0
88.5982 0.366046 0
88.5059 0.100269 0
88.4573 -0.372734 0
88.2467 -1.52702 0
88.7974 2.10732 0
87.8255 0.274472 0
82.7858 1.39543 0
81.0922 0.350163 0
82.1811 -0.335028 0
82.8159 -3.11191 0
90.5473 0.326204 0
90.8216 0.871332 0
90.9856 -0.94848 0
90.9099 -0.0522424 0
81.8319 -3.82899 0
82.9071 -1.83829 0
82.1424 2.70911 0
84.6327 5.99241 0
87.3264 0.331272 0
87.1985 0.0627325 0
87.3914 -0.10039 0
87.3085 -0.34447 0
87.9761 -0.186666 0
88.1589 -0.00823153 0
88.1286 0.102857 0
87.9364 0.435816 0
79.6914 0.495132 0
79.4572 1.29951 0
79.7036 -1.14533 0
80.5143 -0.316686 0
81.1505 2.82199 0
79.6021 1.945 0
78.9892 -2.82822 0
78.1916 -2.85129 0
90.1432 -0.490937 0
89.8935 -0.282948 0
89.7218 0.381425 0
90.6475 0.640556 0
79.5609 3.83844 0
80.0734 2.56277 0
79.0971 -0.821328 0
78.9407 -0.291325 0
78.7947 0.264293 0
79.4616 0.887362 0
76.4087 -0.870207 0
77.4051 -1.34195 0
91.7939 -3.70291 0
89.331 -2.09039 0
88.8055 3.78048 0
92.1825 3.76923 0
77.8159 -0.863597 0
77.8718 -0.140688 0
77.8061 0.200016 0
77.8893 0.841356 0
78.1347 0.0875907 0
78.1486 0.622335 0
78.2877 -0.344026 0
78.4216 -0.0208427 0
75.2399 -0.266701 0
72.8944 0.150908 0
84.7513 3.2265 0
88.7567 2.99831 0
87.4657 -2.52723 0
88.0671 -4.9985 0
77.4243 2.05825 0
77.0047 1.145 0
77.8535 -0.0247048 0
77.5982 -0.0485458 0
80.0622 6.82204 0
78.0534 4.0439 0
79.7471 -4.28997 0
78.7242 -8.08684 0
77.2714 0.783384 0
77.7262 0.423818 0
89.8625 0.531165 0
90.21 1.15871 0
89.8894 -1.05695 0
89.852 -0.205802 0
87.5426 -0.121625 0
87.7748 -0.0823398 0
87.7443 0.070491 0
87.6205 0.404592 0
92.3105 0.453937 0
91.1718 1.40793 0
91.2034 -0.570962 0
92.4502 -0.718331 0
77.3916 0.108385 0