# vtk DataFile Version 3.0
Unstructured Grid for Triangles
ASCII
DATASET UNSTRUCTURED_GRID
POINTS 29612 DOUBLE
-2.72397e-05 1.23686e-06 0
-2.95789e-05 9.5838e-07 0
-2.77865e-05 -3.1235e-07 0
0.0002024 5e-05 0
0.000203975 4.9875e-05 0
0.000205 5e-05 0
0.000203975 -4.9875e-05 0
0.0002024 -5e-05 0
0.000205 -5e-05 0
0.00020295 4.975e-05 0
0.00020295 -4.975e-05 0
0.000201925 4.9625e-05 0
0.000201925 -4.9625e-05 0
-5.29747e-05 -4.79887e-05 0
-5.5e-05 -5e-05 0
-5.24e-05 -5e-05 0
-5.05983e-05 -4.84325e-05 0
-4.98e-05 -5e-05 0
-4.72e-05 -5e-05 0
-4.83864e-05 -4.87761e-05 0
-4.46e-05 -5e-05 0
-4.59e-05 -4.84239e-05 0
-4.29453e-05 -4.24878e-05 0
-4.47486e-05 -4.20717e-05 0
-4.41829e-05 -4.36609e-05 0
-5.12578e-05 -4.62101e-05 0
-4.93077e-05 -4.53594e-05 0
-5.0706e-05 -4.39006e-05 0
-4.19243e-05 -4.77545e-05 0
-4.40307e-05 -4.71837e-05 0
-4.3691e-05 -4.86724e-05 0
-5.16129e-05 -4.20948e-05 0
-4.95355e-05 -4.15432e-05 0
-5.11646e-05 -4.0128e-05 0
-3.94697e-05 -4.81197e-05 0
-4.06302e-05 -4.55143e-05 0
-5.37257e-05 -3.88197e-05 0
-5.31099e-05 -4.07297e-05 0
-5.23982e-05 -3.88328e-05 0
-3.70063e-05 -4.72956e-05 0
-3.68e-05 -5e-05 0
-3.5308e-05 -4.85302e-05 0
-5.072e-05 -3.7867e-05 0
-4.85506e-05 -3.83975e-05 0
-4.90949e-05 -3.59622e-05 0
-3.37127e-05 -4.84331e-05 0
-3.16e-05 -5e-05 0
-3.26495e-05 -4.7415e-05 0
-5.5e-05 -3.5e-05 0
-5.31201e-05 -3.70361e-05 0
-5.28367e-05 -3.46817e-05 0
-3.63898e-05 -4.48809e-05 0
-3.83315e-05 -4.60336e-05 0
-3.26269e-06 -4.15503e-05 0
-5.99662e-06 -4.09556e-05 0
-5.46944e-06 -4.29488e-05 0
-5.29747e-05 4.79887e-05 0
-5.5e-05 5e-05 0
-5.5e-05 4.75e-05 0
-5.5e-05 4.5e-05 0
-5.34834e-05 4.29171e-05 0
-5.26943e-05 4.42611e-05 0
-5.34026e-05 4.60176e-05 0
-5.31099e-05 4.07297e-05 0
-5.11672e-05 4.01178e-05 0
-5.16129e-05 4.20948e-05 0
-5.24e-05 5e-05 0
-5.05983e-05 4.84325e-05 0
-5.31201e-05 3.70361e-05 0
-5.072e-05 3.7867e-05 0
-5.23982e-05 3.88328e-05 0
-4.8341e-05 4.69132e-05 0
-4.83679e-05 4.87539e-05 0
-5.28367e-05 3.46817e-05 0
-5.5e-05 3.25e-05 0
-5.25657e-05 3.28474e-05 0
-4.98e-05 5e-05 0
-5.30382e-05 3.125e-05 0
-4.19243e-05 4.77545e-05 0
-4.40015e-05 4.7335e-05 0
-4.25917e-05 4.63678e-05 0
-4.35138e-05 2.62661e-05 0
-4.14982e-05 2.74462e-05 0
-4.35654e-05 2.85217e-05 0
-4.59e-05 4.84239e-05 0
-4.36852e-05 4.87027e-05 0
-4.46e-05 5e-05 0
-5.33308e-05 2.92503e-05 0
-5.5e-05 2.75e-05 0
-5.23377e-05 2.76953e-05 0
-4.25282e-05 4.46352e-05 0
-4.09368e-05 4.35728e-05 0
-4.06302e-05 4.55143e-05 0
0.0002009 4.95e-05 0
0.0001998 5e-05 0
0.000199875 4.9375e-05 0
0.00019885 4.925e-05 0
0.0001972 5e-05 0
0.000197825 4.9125e-05 0
0.0001968 4.9e-05 0
0.000195775 4.8875e-05 0
0.0001946 5e-05 0
0.00019475 4.875e-05 0
0.000193725 4.8625e-05 0
0.000192 5e-05 0
0.0001927 4.85e-05 0
0.000191675 4.8375e-05 0
0.00019065 4.825e-05 0
0.0001894 5e-05 0
0.000189625 4.8125e-05 0
0.0001886 4.8e-05 0
0.0001868 5e-05 0
0.000187575 4.7875e-05 0
0.00018655 4.775e-05 0
0.000185515 4.8575e-05 0
0.0001842 5e-05 0
0.0001845 4.75e-05 0
0.000185525 4.7625e-05 0
0.000182564 4.829e-05 0
0.0001816 5e-05 0
0.00018245 4.725e-05 0
0.000183475 4.7375e-05 0
0.000181425 4.7125e-05 0
0.000180295 4.82657e-05 0
0.000179 5e-05 0
0.000179375 4.6875e-05 0
0.0001804 4.7e-05 0
0.000178168 4.80619e-05 0
0.0001764 5e-05 0
0.000177325 4.6625e-05 0
0.00017835 4.675e-05 0
0.000176428 4.76631e-05 0
0.0001763 4.65e-05 0
0.0001738 5e-05 0
0.0001751 4.84164e-05 0
0.000175275 4.6375e-05 0
0.000174025 4.75632e-05 0
0.0001712 5e-05 0
0.000172615 4.78449e-05 0
0.0001722 4.6e-05 0
0.000173225 4.6125e-05 0
0.00017015 4.575e-05 0
0.000171243 4.7381e-05 0
0.000169554 4.79999e-05 0
0.0001686 5e-05 0
0.000167507 4.79751e-05 0
0.000168498 4.64861e-05 0
0.000166 5e-05 0
0.00016558 4.71459e-05 0
0.000167135 4.62887e-05 0
0.0001681 4.55e-05 0
0.00016605 4.525e-05 0
0.000167075 4.5375e-05 0
0.000164059 4.61599e-05 0
0.00016394 4.79552e-05 0
0.000162881 4.6615e-05 0
0.000162975 4.4875e-05 0
0.000165025 4.5125e-05 0
0.000164 4.5e-05 0
0.000161754 4.58641e-05 0
0.000161722 4.78101e-05 0
0.000159956 4.58294e-05 0
0.000160925 4.4625e-05 0
0.00016195 4.475e-05 0
0.000157667 4.60322e-05 0
0.000158875 4.4375e-05 0
0.000159194 4.80155e-05 0
0.0001599 4.45e-05 0
0.00015785 4.425e-05 0
0.000155808 4.56757e-05 0
0.000155647 4.76701e-05 0
0.000154059 4.66642e-05 0
0.000153756 4.50083e-05 0
0.000154839 4.50446e-05 0
0.000156825 4.4125e-05 0
0.000151954 4.80508e-05 0
0.000154052 4.8477e-05 0
0.000153 5e-05 0
0.000154775 4.3875e-05 0
0.000152142 4.56625e-05 0
0.000152821 4.45753e-05 0
0.00015375 4.375e-05 0
0.0001504 5e-05 0
0.000149644 4.85168e-05 0
0.000151787 4.43178e-05 0
0.000152725 4.3625e-05 0
0.000150675 4.3375e-05 0
0.0001517 4.35e-05 0
0.000148119 4.50887e-05 0
0.000148072 4.75757e-05 0
0.000146584 4.63516e-05 0
0.000150008 4.6396e-05 0
0.000149351 4.4543e-05 0
0.00015061 4.46252e-05 0
0.0001476 4.3e-05 0
0.000148625 4.3125e-05 0
0.000146492 4.82975e-05 0
0.000144888 4.73562e-05 0
0.000146676 4.44259e-05 0
0.000145255 4.53656e-05 0
0.000145652 4.38669e-05 0
0.000141401 4.79821e-05 0
0.0001426 5e-05 0
0.00014 5e-05 0
0.000144374 4.38862e-05 0
0.00014555 4.275e-05 0
0.0001435 4.25e-05 0
0.000144525 4.2625e-05 0
0.000142746 4.38121e-05 0
0.000141288 4.43191e-05 0
0.000141707 4.32778e-05 0
0.00013921 4.38992e-05 0
0.000140355 4.5932e-05 0
0.000138302 4.5922e-05 0
0.000142912 4.58869e-05 0
0.000140592 4.30037e-05 0
0.00014145 4.225e-05 0
0.000136458 4.5869e-05 0
0.000137106 4.4063e-05 0
0.0001394 4.2e-05 0
0.000138259 4.28915e-05 0
0.000137484 4.77094e-05 0
0.000139166 4.78902e-05 0
0.00013586 4.78984e-05 0
0.000133449 4.78649e-05 0
0.000134717 4.61848e-05 0
0.000137256 4.25134e-05 0
0.000135323 4.24541e-05 0
0.000136325 4.1625e-05 0
0.000136122 4.2876e-05 0
0.000131206 4.47284e-05 0
0.000133168 4.56738e-05 0
0.000131773 4.65243e-05 0
0.000134756 4.40343e-05 0
0.000132747 4.36463e-05 0
0.000133483 4.26786e-05 0
0.000131081 4.1867e-05 0
0.000132382 4.22815e-05 0
0.000131507 4.3122e-05 0
0.000131059 4.80123e-05 0
0.00013325 4.125e-05 0
0.00012915 4.075e-05 0
0.00012982 4.18199e-05 0
0.000128915 4.26216e-05 0
0.000126366 4.47574e-05 0
0.000127331 4.30908e-05 0
0.000128781 4.44872e-05 0
0.000125336 4.28376e-05 0
0.000130218 4.31077e-05 0
0.000127894 4.16344e-05 0
0.000124774 4.69608e-05 0
0.000127668 4.64148e-05 0
0.000126591 4.8331e-05 0
0.000126722 4.18415e-05 0
0.000125768 4.11931e-05 0
0.000124326 4.13546e-05 0
0.00012505 4.025e-05 0
0.000122408 4.50118e-05 0
0.000120276 4.47432e-05 0
0.00012139 4.32235e-05 0
0.000124336 4.44132e-05 0
0.000123056 4.27595e-05 0
0.000122977 4.09049e-05 0
0.00012185 4.69217e-05 0
0.000122676 4.85947e-05 0
0.000120525 4.86094e-05 0
0.000121479 4.13153e-05 0
0.000119547 4.24221e-05 0
0.000120249 4.07448e-05 0
0.000119925 3.9625e-05 0
0.000119346 4.06114e-05 0
0.000117479 4.47279e-05 0
0.000114726 4.45259e-05 0
0.00011571 4.27814e-05 0
0.000119443 4.66611e-05 0
0.000117447 4.21596e-05 0
0.000118421 4.0752e-05 0
0.000117409 4.04437e-05 0
0.000116775 4.70073e-05 0
0.0001179 4.855e-05 0
0.000115473 4.84802e-05 0
0.00011685 3.925e-05 0
0.000117875 3.9375e-05 0
0.000115454 4.00551e-05 0
0.0001148 3.9e-05 0
0.000115825 3.9125e-05 0
0.000111704 4.23398e-05 0
0.000113786 4.26731e-05 0
0.000112589 4.43871e-05 0
0.000113234 4.06671e-05 0
0.000114754 4.13371e-05 0
0.0001106 4.42326e-05 0
0.000109703 4.24261e-05 0
0.00011275 3.875e-05 0
0.000113775 3.8875e-05 0
0.000110211 4.80875e-05 0
0.000108244 4.71951e-05 0
0.000109312 4.58413e-05 0
0.000111755 3.99116e-05 0
0.00010944 3.92972e-05 0
0.000110415 4.05876e-05 0
0.000108839 4.07536e-05 0
0.000106472 4.76905e-05 0
0.000107274 4.57868e-05 0
0.000108011 3.92415e-05 0
0.000106885 4.04365e-05 0
0.000106625 3.88708e-05 0
0.000105286 4.19254e-05 0
0.000105055 3.95469e-05 0
0.000104215 4.39764e-05 0
0.000106346 4.40629e-05 0
0.000100945 4.51249e-05 0
0.000102825 4.5614e-05 0
0.000101189 4.68452e-05 0
0.000107625 3.8125e-05 0
0.000105575 3.7875e-05 0
0.0001066 3.8e-05 0
0.000103352 4.76905e-05 0
0.000101803 4.8465e-05 0
0.000103685 3.89398e-05 0
0.00010245 3.8825e-05 0
0.000103525 3.7625e-05 0
0.000101092 3.99779e-05 0
0.000101267 3.82619e-05 0
0.000101382 4.2025e-05 0
0.000103187 4.05286e-05 0
0.000103359 4.24605e-05 0
9.87383e-05 4.5447e-05 0
9.99411e-05 4.35161e-05 0
9.744e-05 4.33145e-05 0
0.00010045 3.725e-05 0
0.000101475 3.7375e-05 0
9.70845e-05 4.65215e-05 0
9.52614e-05 4.67664e-05 0
9.61768e-05 4.49944e-05 0
9.9729e-05 3.87704e-05 0
9.78901e-05 3.9598e-05 0
9.85823e-05 3.81492e-05 0
9.62289e-05 3.93709e-05 0
9.74259e-05 3.81279e-05 0
9.7375e-05 3.6875e-05 0
9.63045e-05 3.76631e-05 0
9.58e-05 5e-05 0
9.32e-05 5e-05 0
9.47542e-05 4.8457e-05 0
9.49675e-05 3.85246e-05 0
9.36214e-05 3.89472e-05 0
9.40006e-05 3.74906e-05 0
9.66411e-05 4.12573e-05 0
9.44241e-05 4.07079e-05 0
9.03569e-05 4.24993e-05 0
9.21701e-05 4.02409e-05 0
9.27439e-05 4.27744e-05 0
8.89795e-05 4.09067e-05 0
9.03071e-05 4.0248e-05 0
9.25447e-05 3.77721e-05 0
9.3275e-05 3.6375e-05 0
9.07708e-05 3.87127e-05 0
9.11303e-05 3.70839e-05 0
9.11933e-05 4.55145e-05 0
9.30678e-05 4.73279e-05 0
9.11886e-05 4.82603e-05 0
8.87724e-05 3.88076e-05 0
8.99595e-05 3.75116e-05 0
9.02e-05 3.6e-05 0
8.89241e-05 3.6954e-05 0
8.36977e-05 4.59472e-05 0
8.36223e-05 4.83578e-05 0
8.20467e-05 4.74142e-05 0
8.71227e-05 4.03557e-05 0
8.61e-05 3.55e-05 0
8.68368e-05 3.65714e-05 0
8.5484e-05 3.6588e-05 0
8.47735e-05 4.02845e-05 0
8.23121e-05 4.21599e-05 0
8.26582e-05 3.98147e-05 0
8.46943e-05 4.2454e-05 0
8.38832e-05 3.78613e-05 0
8.35569e-05 3.63808e-05 0
8.44098e-05 3.6291e-05 0
8.5075e-05 3.5375e-05 0
8.51465e-05 4.77163e-05 0
8.3025e-05 3.5125e-05 0
8.22824e-05 3.68659e-05 0
8.1446e-05 3.57362e-05 0
8.05884e-05 3.71794e-05 0
7.53471e-05 4.77524e-05 0
7.38313e-05 4.73927e-05 0
7.39102e-05 4.61526e-05 0
7.9826e-05 3.58588e-05 0
7.88607e-05 3.76287e-05 0
7.81733e-05 3.57987e-05 0
8.16783e-05 3.84471e-05 0
8.07975e-05 4.04095e-05 0
7.52138e-05 4.04775e-05 0
7.67682e-05 4.17043e-05 0
7.49617e-05 4.21803e-05 0
7.52903e-05 3.84008e-05 0
7.38293e-05 3.93136e-05 0
[...]
CELL_DATA 58684
VECTORS velocity DOUBLE
74.1377 0.337132 0
85.9329 -0.000139417 0
85.9058 0.000126455 0
85.938 -0.00217672 0
85.91 0.00232343 0
85.9439 -0.00222959 0
85.9161 0.00232028 0
77.8719 -0.00216498 0
77.8829 -0.0239806 0
77.9774 -0.00334801 0
78.0818 -0.00602347 0
78.1384 -0.408272 0
77.9112 -0.109738 0
78.2156 -0.134552 0
77.8918 -0.185129 0
78.4042 -0.171294 0
77.8721 -0.112048 0
78.7484 -0.15704 0
77.936 -0.317323 0
79.2426 -0.112795 0
77.8856 -0.114619 0
78.7202 -0.368682 0
85.1733 -2.17374 0
77.8592 0.0119974 0
77.8596 0.0514017 0
77.8588 0.0249371 0
77.8909 0.141403 0
77.8825 0.0229315 0
77.8875 0.188286 0
77.9756 0.049137 0
77.8822 0.144833 0
77.9343 0.0326257 0
77.8445 0.144357 0
78.2838 0.163105 0
77.9975 1.1314 0
78.1455 0.0679286 0
77.8944 0.177758 0
78.3569 0.354547 0
85.9511 0.000989937 0
85.9562 -0.0003183 0
85.9656 -0.00575505 0
85.9688 -0.00236445 0
85.9789 -0.00076122 0
85.987 -0.00552876 0
85.9901 -0.00679862 0
85.9942 -0.0025396 0
86.0025 -0.000533031 0
86.0092 -0.0075369 0
86.0112 -0.00482348 0
86.0208 -0.00139728 0
86.0289 -0.00857731 0
86.0309 -0.00863303 0
86.0339 -0.00428878 0
86.0422 -0.00108254 0
86.0483 -0.00947796 0
86.0496 -0.00707401 0
86.059 -0.00228229 0
86.0674 -0.0116804 0
86.0693 -0.011228 0
86.0718 -0.00590429 0
86.0824 -0.000821231 0
86.0841 -0.0130233 0
86.0932 -0.00899295 0
86.1047 -0.000727871 0
86.1054 -0.0162593 0
86.1086 -0.0130855 0
86.1166 -0.0113616 0
86.1243 -0.0012699 0
86.126 -0.0157801 0
86.1338 -0.0120479 0
86.1439 -0.00229923 0
86.1444 -0.0179984 0
86.1504 -0.0131611 0
86.1582 -0.0217975 0
86.1682 -0.00114637 0
86.1704 -0.0166105 0
86.1766 -0.0107837 0
86.1902 -0.00214505 0
86.1919 -0.0224943 0
86.2145 -0.0189369 0
86.1959 -0.0180338 0
86.2164 -0.00122472 0
86.2251 -0.0118942 0
86.2187 -0.0234506 0
86.2495 -0.014238 0
86.2438 -0.0190236 0
86.2398 -0.0265525 0
86.2523 -0.0315063 0
86.2761 -0.0204324 0
86.2906 -0.028923 0
86.2662 -0.0244288 0
86.2833 -0.0350092 0
86.3036 -0.0266876 0
86.2985 -0.0273009 0
86.3075 -0.0374243 0
86.3413 -0.035765 0
86.3241 -0.0301291 0
86.331 -0.0396166 0
86.35 -0.04635 0
86.358 -0.0352066 0
86.3844 -0.0420082 0
86.3602 -0.0367554 0
86.3879 -0.0118598 0
86.3883 -0.0470182 0
86.4094 -0.0449126 0
86.4001 -0.0479018 0
86.4133 -0.0142879 0
86.4157 -0.0514495 0
86.4327 -0.056191 0
86.4547 -0.0322997 0
86.4505 -0.0347829 0
86.4349 -0.0470874 0
86.4703 -0.0608206 0
86.4708 -0.0249521 0
86.5009 -0.0561275 0
86.4881 -0.0363504 0
86.5268 -0.00299985 0
86.512 -0.063845 0
86.5277 -0.0714056 0
86.5609 -0.0642541 0
86.5824 -0.0483922 0
86.5356 -0.0386013 0
86.5702 -0.0733056 0
86.6093 -0.0494875 0
86.6026 -0.0768449 0
86.5781 -0.0267315 0
86.6162 -0.0698844 0
86.633 -0.0263117 0
86.6295 -0.0810008 0
86.6576 -0.0930664 0
86.6945 -0.0555084 0
86.6863 -0.0769651 0
86.6602 -0.0358554 0
86.7272 -0.100825 0
86.6734 -0.0287936 0
86.7052 -0.100102 0
86.7735 -0.113368 0
86.788 -0.0799141 0
86.8056 -0.0976333 0
86.7615 -0.0951235 0
86.7908 -0.104211 0
86.7594 -0.0453003 0
86.8357 -0.120532 0
86.8616 -0.1326 0
86.8969 -0.0874603 0
86.8178 -0.0631855 0
86.8585 -0.11361 0
86.8798 -0.134523 0
86.843 -0.0267609 0
86.9505 -0.145504 0
86.963 -0.160178 0
87.0087 -0.0991484 0
86.9195 -0.0857691 0
86.9791 -0.134106 0
87.0008 -0.162054 0
86.9432 -0.0287027 0
87.0192 -0.186792 0
87.0704 -0.200844 0
87.0882 -0.142848 0
87.0827 -0.164524 0
87.1376 -0.152601 0
87.1143 -0.208941 0
87.1196 -0.0549267 0
87.1248 -0.19654 0
87.2014 -0.202666 0
87.1779 -0.0670862 0
87.2704 -0.241994 0
87.2993 -0.22416 0
87.2801 -0.142242 0
87.3486 -0.11022 0
87.2734 -0.24729 0
87.312 -0.272633 0
87.3194 -0.0558753 0
87.3887 -0.278989 0
87.4405 -0.287661 0
87.3603 -0.206394 0
87.429 -0.131164 0
87.469 -0.172222 0
87.4714 -0.328324 0
87.5197 -0.113415 0
87.5412 -0.308315 0
87.5753 -0.303617 0
87.5992 -0.35493 0
87.5559 -0.00481159 0
87.7049 -0.355597 0
87.5883 -0.274188 0
87.7167 -0.249518 0
87.7888 -0.291985 0
87.755 -0.3949 0
87.8158 -0.399671 0
87.6785 -0.0899963 0
87.8566 -0.389165 0
87.8831 -0.4491 0
87.898 -0.432226 0
88.004 -0.101303 0
87.8839 -0.344364 0
88.0578 -0.498988 0
88.1152 -0.380032 0
88.0347 -0.32026 0
88.1219 -0.528663 0
88.1041 -0.520837 0
87.9905 -0.0902969 0
88.2143 -0.581844 0
88.2534 -0.546232 0
88.4487 -0.104853 0
88.358 -0.601232 0
88.1977 -0.419187 0
88.4646 -0.384527 0
88.5299 -0.496708 0
88.4165 -0.545962 0
88.4406 -0.651831 0
88.5095 -0.236166 0
88.6232 -0.629498 0
88.5734 -0.725796 0
88.7729 -0.73716 0
88.7378 -0.0107265 0
88.7272 -0.608355 0
88.7867 -0.763382 0
88.6268 -0.188958 0
88.8532 -0.80397 0
88.9544 -0.462575 0
88.9004 -0.840938 0
89.1286 -0.259131 0
89.0822 -0.72331 0
89.0441 -0.852808 0
88.9885 -0.131487 0
89.1917 -0.880154 0
89.3836 -0.858103 0
89.2246 -0.732576 0
89.2737 -0.440773 0
89.4168 -0.987149 0
89.4355 -0.386362 0
89.6063 -0.0667434 0
89.3639 -0.775907 0
89.5403 -0.976779 0
89.6308 -1.05013 0
89.6711 -0.328392 0
89.787 -0.9049 0
89.9498 -0.990484 0
89.7564 -0.112165 0
90.1058 -0.962804 0
90.0127 -1.0768 0
89.8726 -0.798187 0
89.9419 -0.385026 0
90.0603 -0.449725 0
90.1771 -1.08214 0
90.1268 -0.00616334 0
90.2886 -1.15457 0
90.4313 -1.09393 0
90.3846 -1.15273 0
90.3797 -0.250556 0
90.5044 -0.938556 0
90.7658 -0.948723 0
90.3548 -0.00424821 0
90.8566 -1.12869 0
91.0474 -0.957002 0
90.6823 -0.69375 0
90.5135 -0.286466 0
91.0394 -1.08221 0
90.6807 -0.353998 0
90.5049 -0.0162797 0
90.9751 -0.72592 0
91.3151 -0.981104 0
91.4886 -0.913687 0
90.6821 -0.0732802 0
91.4463 -0.620419 0
91.582 -0.815812 0
90.5544 0.032402 0
91.7275 -0.802575 0
91.9235 -0.667824 0
91.5448 -0.228452 0
90.3219 0.0103941 0
92.0889 -0.437159 0
91.228 0.207438 0
91.4655 0.318021 0
91.9631 -0.283459 0
91.7415 -0.0190005 0
92.4333 -0.0386398 0
90.4505 0.379136 0
92.416 -0.143801 0
91.971 0.435232 0
92.6293 0.512429 0
90.3637 0.11058 0
92.5912 1.2242 0
92.3638 1.45721 0
89.0085 0.199362 0
92.8167 0.913416 0
92.72 1.3976 0
90.3661 1.49632 0
90.1121 0.714581 0
91.6482 1.13621 0
92.6201 1.93638 0
89.2608 0.333283 0
92.1264 2.83236 0
92.7996 2.18077 0
92.8131 2.41012 0
88.5048 1.42621 0
91.1518 2.95652 0
92.1842 3.2231 0
88.4854 0.235584 0
91.9979 3.72781 0
91.6513 3.60124 0
90.6843 5.23182 0
86.212 0.397993 0
91.8192 4.93501 0
89.8299 3.55748 0
87.9637 1.57627 0
87.5801 3.00248 0
91.5849 5.44275 0
90.4514 5.88579 0
86.6519 0.612168 0
90.521 6.71508 0
85.9231 -0.000615687 0
85.9284 0.000256608 0
85.937 0.00517749 0
85.9401 0.00181738 0
85.9494 0.000766075 0
85.9572 0.00523315 0
85.9599 0.00572148 0
85.9643 0.00177564 0
85.972 0.000596822 0
85.9785 0.00720853 0
85.9803 0.00452366 0
85.9895 0.00136704 0
85.9971 0.00801645 0
85.9991 0.00818674 0
86.0021 0.00406048 0
86.0102 0.00106502 0
86.0161 0.0092314 0
86.0176 0.00669174 0
86.0269 0.00226179 0
86.0352 0.011585 0
86.0371 0.0110561 0
86.0485 0.0140945 0
86.0396 0.00576412 0
86.0569 0.00936022 0
86.0695 0.0146143 0
86.0607 0.00911225 0
86.0765 0.0134545 0
86.0846 0.01154 0
86.0915 0.0180843 0
86.0811 0.00902061 0
86.1016 0.0122032 0
86.1097 0.0201253 0
86.1016 0.009576 0
86.1266 0.0228275 0
86.1302 0.0202286 0
86.1362 0.0160978 0
86.1228 0.0119428 0
86.1391 0.0170883 0
86.1565 0.0165852 0
86.1454 0.0110812 0
86.173 0.0277955 0
86.1732 0.0105413 0
86.1843 0.0192636 0
86.1689 0.0145536 0
86.1885 0.0238416 0
86.2102 0.0270175 0
86.2195 0.0146092 0
86.2071 0.0247072 0
86.2291 0.0295562 0
86.2324 0.0317754 0
86.2573 0.0165654 0
86.2469 0.0206817 0
86.2612 0.0292113 0
86.2759 0.0409022 0
86.2848 0.0198075 0
86.2898 0.0332126 0
86.2989 0.0428665 0
86.3143 0.0253128 0
86.2947 0.0302946 0
86.3219 0.0475391 0
86.3248 0.0448824 0
86.3349 0.0288661 0
86.3465 0.0206903 0
86.3563 0.0418582 0
86.2974 0.0141217 0
86.3721 0.0485134 0
86.405 0.057281 0
86.3882 0.0485702 0
86.3738 0.0294284 0
86.4181 0.0576013 0
86.4252 0.0513517 0
86.445 0.0252664 0
86.4084 0.0479591 0
86.4496 0.0538668 0
86.4666 0.0624838 0
86.4162 0.0152864 0
86.455 0.0446044 0
86.5024 0.0719535 0
86.4643 0.0369594 0
86.5139 0.0643554 0
86.544 0.0764203 0
86.5198 0.0561905 0
86.5379 0.0230652 0
86.5545 0.0666613 0
86.5725 0.0786593 0
86.5528 0.0203831 0
86.5966 0.0862803 0
86.5638 0.0620602 0
86.6206 0.0722541 0
86.5801 0.0490772 0
86.6307 0.0932974 0
86.6912 0.113037 0
86.6493 0.0284778 0
86.6489 0.07725 0
86.7166 0.120147 0
86.6942 0.0849679 0
86.6368 0.0349075 0
86.7329 0.111422 0
86.7559 0.117948 0
86.715 0.0290691 0
86.761 0.0534208 0
86.7894 0.103352 0
86.8065 0.137184 0
86.7359 0.0730119 0
86.8373 0.134057 0
86.8585 0.143298 0
86.8609 0.0491235 0
86.8383 0.0890826 0
86.9082 0.160792 0
86.9022 0.137193 0
86.8026 0.0457457 0
86.9277 0.154317 0
86.9774 0.165593 0
86.9516 0.0661388 0
86.9426 0.14147 0
87.0352 0.198664 0
87.0224 0.151784 0
86.8961 0.0482281 0
87.0598 0.185808 0
87.1295 0.227738 0
87.011 0.0655391 0
87.1165 0.18101 0
87.0943 0.0844185 0
87.1597 0.190898 0
87.072 0.107294 0
87.1906 0.242085 0
87.2491 0.243414 0
87.1544 0.0673301 0
87.24 0.237836 0
87.3186 0.275608 0
87.2768 0.0705754 0
87.2092 0.20012 0
87.3107 0.236239 0
87.3681 0.280211 0
87.2486 0.042661 0
87.3811 0.255775 0
87.4843 0.333264 0
87.4654 0.28002 0
87.4006 0.0845402 0
87.5415 0.293478 0
87.3518 0.107353 0
87.3836 0.246244 0
87.5302 0.324368 0
87.6415 0.369092 0
87.6522 0.378568 0
87.3705 0.00605953 0
87.7532 0.431893 0
87.7658 0.420275 0
87.7943 0.373022 0
87.7293 0.18313 0
87.8394 0.199875 0
87.8081 0.417187 0
87.5737 0.113115 0
87.9349 0.471193 0
87.9261 0.463002 0
87.9353 0.416532 0
87.8256 0.121042 0
88.0198 0.464232 0
88.147 0.580248 0
88.0058 0.217344 0
87.9464 0.230072 0
88.1078 0.469923 0
88.2779 0.604431 0
87.8627 0.142361 0
88.3183 0.639374 0
88.3605 0.622016 0
88.1736 0.121961 0
88.5076 0.7135 0
88.543 0.684429 0
88.6203 0.591168 0
88.3941 0.259336 0
88.3582 0.293678 0
88.529 0.661928 0
88.2564 0.18892 0
88.7015 0.790451 0
88.7588 0.745785 0
88.7633 0.688606 0
88.4911 0.104437 0
88.942 0.811615 0
88.9618 0.829803 0
88.7991 0.466168 0
89.0671 0.653655 0
88.8195 0.377669 0
89.0213 0.795659 0
88.7012 0.240078 0
89.1871 0.927233 0
89.2148 0.896094 0
88.7458 0.191654 0
89.2931 0.826297 0
89.4847 0.952552 0
89.3922 0.930401 0
89.2821 0.217067 0
89.7059 0.996272 0
89.7527 1.06425 0
89.2265 0.643696 0
89.6486 0.788829 0
89.2951 0.392374 0
89.9602 1.12004 0
89.4884 0.122021 0
90.029 1.0875 0
90.0261 1.02924 0
89.2953 0.0964879 0
89.9597 0.932773 0
90.3675 1.10115 0
90.4662 1.11069 0
89.9147 0.280702 0
90.5463 1.08292 0
90.5976 1.15531 0
89.8824 0.704288 0
90.6171 0.759601 0
90.0871 0.271227 0
90.774 1.15211 0
90.1191 0.100226 0
90.9307 1.0736 0
91.0266 1.0568 0
89.9347 0.0714628 0
90.8468 0.874411 0
91.3348 0.982624 0
91.5068 0.916391 0
90.401 0.175929 0
91.3377 0.857304 0
91.655 0.865196 0
90.9457 0.743531 0
91.4497 0.425409 0
90.4974 0.109074 0
91.4163 0.773981 0
90.5213 0.039533 0
91.9149 0.754722 0
92.0074 0.603507 0
90.4068 0.0390728 0
91.7128 0.289877 0
92.17 0.31381 0
92.3669 0.175596 0
90.5494 -0.0998408 0
92.4631 -0.0320823 0
92.5135 -0.170548 0
90.7068 -0.276596 0
92.5303 -0.201968 0
91.7302 -0.653792 0
90.9672 -0.0972626 0
90.7668 -0.00185014 0
92.6737 -0.498964 0
92.4353 -0.899334 0
92.8735 -1.08067 0
90.4405 -0.00684443 0
92.1529 -1.35191 0
92.8813 -1.82517 0
90.4092 -0.126903 0
91.9814 -1.31782 0
92.8606 -2.37076 0
91.4315 -1.78815 0
90.3957 -0.667041 0
92.6698 -2.72204 0
92.532 -3.01636 0
91.3778 -1.13139 0
90.8433 -3.17436 0
88.8177 -2.61276 0
92.1736 -3.05074 0
89.2175 -0.411312 0
92.1607 -4.00943 0
89.5972 7.31271 0
90.3271 6.54067 0
84.9561 1.93112 0
89.4942 7.2681 0
87.2642 6.64559 0
88.8352 7.89898 0
85.542 0.759411 0
87.8579 8.09906 0
86.6912 7.96712 0
84.2993 0.963606 0
86.7627 8.49498 0
92.0723 -4.42945 0
89.455 -0.254358 0
91.8069 -4.77522 0
90.5707 -5.16957 0
90.0153 -4.45091 0
88.5777 -0.271297 0
90.8108 -5.76292 0
85.4698 7.75662 0
90.1595 -7.04014 0
88.3338 -1.40831 0
89.8379 -6.80406 0
88.9753 -7.76783 0
83.152 2.36837 0
88.5397 -7.62133 0
89.7514 -4.26092 0
89.0318 -6.90805 0
87.1779 -5.1101 0
86.2384 -0.841257 0
88.096 -7.0118 0
87.3063 -7.41969 0
84.8455 8.18424 0
87.3773 -7.43245 0
87.0685 -0.456869 0
86.351 -7.78054 0
85.8374 -8.48639 0
85.5629 -0.565945 0
84.7526 -8.62667 0
85.2617 -6.33426 0
83.4075 -0.655436 0
83.7416 -8.77676 0
83.824 -4.86767 0
85.5275 -3.83797 0
84.2891 -7.51577 0
83.1836 -7.86351 0
85.8399 4.40236 0
82.2517 0.530399 0
85.2512 2.94322 0
83.9145 -0.074996 0
82.6366 -8.52865 0
84.472 7.75098 0
81.9823 0.384924 0
83.9056 6.59272 0
81.7759 -8.39081 0
83.4868 -1.71723 0
81.0804 -6.12337 0
83.8935 8.83237 0
80.8759 2.0244 0
83.7922 8.75668 0
81.5911 7.29669 0
81.1619 0.412697 0
82.2165 7.67549 0
81.6831 -6.37399 0
83.0035 -0.47394 0
80.9265 -8.51807 0
80.9454 -8.28425 0
82.5866 8.24395 0
80.6754 7.85479 0
80.4782 0.0421352 0
81.7289 8.11182 0
79.8911 5.07868 0
80.4747 2.28657 0
80.0074 -8.46371 0
80.9427 -1.09732 0
80.341 -8.3391 0
79.5489 8.3059 0
79.3884 -7.73195 0
80.081 -1.0766 0
79.7049 -3.39721 0
78.134 -7.4248 0
81.1619 -4.10767 0
77.9945 -7.18046 0
79.5843 -0.290412 0
77.0838 -6.85913 0
79.2502 2.86318 0
79.8538 0.461121 0
79.1285 6.97351 0
79.2501 0.117019 0
78.9195 8.18243 0
78.6371 7.67718 0
78.9356 0.185351 0
77.8833 6.71769 0
78.7189 0.13355 0
78.4695 -6.41886 0
79.5816 -0.574994 0
79.6907 6.04363 0
77.8979 0.73538 0
77.4403 6.3074 0
76.9702 -6.8194 0
79.6945 -0.230017 0
75.3483 -5.83054 0
77.8815 -0.440647 0
76.1689 -5.73856 0
78.5282 2.54771 0
77.8557 0.120439 0
79.1915 -5.22313 0
77.8576 -0.112854 0
75.4743 -5.40246 0
76.8518 5.69043 0
76.8805 -4.26278 0
77.8741 -0.242415 0
75.7807 -4.62602 0
77.8885 3.13955 0
75.7461 1.99176 0
76.3562 4.91901 0
77.6308 -0.983754 0
75.6226 -5.12707 0
77.8156 0.402217 0
76.2701 6.63938 0
77.6656 -2.37527 0
77.8576 -0.0841185 0
75.2947 -4.62506 0
76.0023 5.93131 0
77.8319 0.716115 0
75.9622 4.63489 0
75.6836 4.57472 0
77.8094 0.380836 0
74.8897 4.07377 0
74.4396 -4.15311 0
77.841 -0.294645 0
74.1382 -4.14644 0
76.5271 -1.97483 0
77.8545 -0.200494 0
73.5178 -2.82528 0
74.9462 5.06869 0
77.756 0.619857 0
76.1977 3.2464 0
74.1282 -2.56592 0
77.7514 -0.311504 0
73.4816 -2.33773 0
73.8349 3.72858 0
77.7612 0.26477 0
74.2372 3.51296 0
74.5393 2.86527 0
77.8559 0.0347612 0
73.7032 3.05266 0
74.829 -1.51008 0
77.6947 -0.539943 0
74.1182 -1.33118 0
72.9396 -0.847742 0
77.0251 -0.922772 0
72.9902 -0.718084 0
76.7275 0.958509 0
77.792 0.0782904 0
75.8135 2.43118 0
73.4837 2.45788 0
77.6576 0.059342 0
73.0612 1.55284 0
77.3756 -0.235317 0
77.841 -0.11214 0
72.9887 -0.235978 0
73.5152 -0.0923798 0
77.812 -0.0658585 0
75.7364 0.306956 0
73.6815 0.525932 0
77.8254 -0.0619653 0
77.0707 -5.65265 0
77.9131 -0.432035 0
77.8441 0.132907 0
77.8959 6.87941 0
78.8306 -7.73653 0
81.8891 -0.945385 0
80.3092 0.996539 0
81.4906 8.61735 0
77.7941 0.279595 0
74.3947 4.84948 0
73.8801 -2.8346 0
77.8066 -0.201587 0
77.8625 -0.572577 0
77.4627 -3.66639 0
77.9225 0.800686 0
77.9049 0.199015 0
77.8036 -0.000455512 0
73.5561 2.05134 0
79.2081 0.465722 0
78.3218 1.57424 0
78.6413 -1.37277 0
80.1259 -0.690568 0
85.6526 -1.27348 0
85.2279 -8.47337 0
87.1145 8.09234 0
85.1902 0.469573 0
77.691 1.66204 0
79.4669 7.99935 0
78.4036 -7.07873 0
79.1512 -2.3136 0
76.8351 -1.45785 0
74.516 -0.220869 0
76.0392 5.82552 0
78.0066 1.88886 0
77.847 -1.78782 0
74.6658 -4.62993 0
91.5559 -5.41572 0
88.2642 -0.664323 0
87.8452 0.79438 0
91.9963 4.51349 0
77.9175 -0.814101 0
77.8773 -0.0442904 0
77.8648 0.148363 0
78.8658 0.756189 0
82.9451 0.737831 0
82.5743 4.10922 0
81.0575 -1.99014 0
84.1296 -1.74864 0
81.4966 4.8991 0
84.406 8.31525 0
83.2386 -8.69177 0
82.3872 -1.92111 0
86.4171 1.61542 0
87.4993 5.04213 0
86.0664 -2.79789 0
87.2083 -0.0432664 0
90.3589 -0.254161 0
92.8374 -1.33194 0
92.6638 0.523897 0
89.5652 0.0297619 0
90.4931 0.0022158 0
92.0517 0.584927 0
91.8255 -0.569637 0
90.6566 0.0385917 0
78.9271 -1.44606 0
78.3908 -0.572901 0
78.303 1.23618 0
79.0935 0.949296 0
78.1489 1.22455 0
77.8732 0.239857 0
77.8547 -0.106919 0
78.0788 -1.12519 0
89.2651 0.960303 0
90.4992 1.89741 0
89.5849 -1.15418 0
89.7813 -0.172397 0
75.8709 -0.958425 0
77.8305 -0.155072 0
77.4195 -0.439042 0
77.8445 -0.373589 0
77.8425 0.205192 0
77.8291 0.966401 0
91.1058 1.00144 0
90.2624 0.157013 0
90.4356 -0.00365514 0
90.8175 -1.08194 0
81.5201 -0.0410399 0
80.7636 -2.82609 0
81.8159 1.8061 0
80.5333 0.448442 0
77.7108 4.04174 0
77.1812 7.31521 0
76.937 -6.25733 0
78.1857 -3.22443 0
78.6899 -2.10919 0
77.4442 -2.22853 0
77.795 4.63598 0
78.1271 2.22346 0
90.6651 0.0495705 0
90.4095 0.143465 0
90.5806 -0.0501348 0
91.5545 0.0976058 0
79.6061 -5.42379 0
80.6831 -5.26234 0
80.2781 4.64161 0
80.792 8.5367 0
78.9606 -3.97943 0
80.128 -2.31449 0
79.9593 3.11852 0
79.1507 1.5356 0
90.2959 1.17081 0
89.7329 0.143515 0
89.99 -0.0105935 0
89.8536 -1.04987 0
77.2389 1.01248 0
77.8359 0.0300025 0
90.5041 -0.058066 0
91.1591 -0.35899 0
90.8662 0.250684 0
90.3214 0.038708 0
78.7388 -0.955395 0
78.2768 -1.33062 0
79.0334 1.74153 0
78.1705 0.735394 0
77.883 -0.146445 0
78.0972 -0.697437 0
77.9363 0.314923 0
77.8586 0.136214 0
73.9941 1.71174 0
76.8674 1.5222 0
86.8236 -3.16288 0
90.1525 -6.38366 0
91.1113 5.83834 0
86.5346 2.28323 0
76.7029 -2.30944 0
74.6239 -2.89633 0
89.0106 0.159246 0
89.2841 0.894258 0
88.2646 0.0749331 0
88.9065 0.849798 0
89.2991 -0.872083 0
89.1492 -0.142683 0
88.6521 -0.708226 0
88.5854 -0.0135764 0
90.1626 -0.218828 0
90.267 -0.6313 0
90.1164 0.397358 0
89.8672 0.00710242 0
77.8433 0.179267 0
77.6383 0.537797 0
76.3671 0.452272 0
74.0892 0.844803 0
77.7639 -0.24853 0
77.8292 -0.169722 0
77.3206 0.274713 0
77.2413 -0.748285 0
92.6697 -2.7756 0
89.5149 -1.76274 0
90.4977 2.23985 0
92.8238 1.63295 0
77.9905 -0.0636376 0
78.0807 -0.365566 0
77.8806 0.0519943 0
78.2481 0.260533 0
89.5241 -0.208578 0
89.5359 -0.541016 0
89.5704 0.362106 0
89.1567 0.116314 0
88.0626 0.166171 0
88.2522 0.529584 0
88.266 -0.617719 0
88.1625 -0.149505 0
78.4007 -0.897939 0
79.2775 -2.1322 0
78.734 1.61155 0
78.3755 1.27171 0
79.0392 2.87896 0
77.4985 1.84858 0
78.0397 -1.92079 0
78.673 -2.79033 0
91.0375 -0.54165 0
91.9813 0.301402 0
92.1533 -0.294027 0
91.461 0.582106 0
77.6288 -1.14632 0
77.7416 -1.36286 0
77.7761 1.08061 0
77.2631 1.3039 0
88.0622 0.545814 0
87.7614 0.161853 0
87.8273 -0.101992 0
87.9985 -0.464624 0
84.9438 4.27534 0
86.9318 7.14651 0
86.422 -8.41387 0
85.9814 -3.35452 0
75.0997 -3.41942 0
77.4306 -3.51048 0
84.5707 -3.06748 0
85.2058 -1.09954 0
83.5795 0.454117 0
86.8652 3.11927 0
74.6831 4.61948 0
76.6146 2.72911 0
88.8438 -0.0515668 0
89.0157 -0.551361 0
88.8974 0.365107 0
88.8051 0.100131 0
88.6954 -0.371918 0
88.4798 -1.52342 0
89.0327 2.10134 0
88.0563 0.273971 0
82.9568 1.3974 0
81.2374 0.350681 0
82.3431 -0.336143 0
82.9907 -3.11435 0
90.8222 0.325952 0
91.0969 0.867621 0
91.2585 -0.944881 0
91.1771 -0.0552554 0
81.9946 -3.83329 0
83.0806 -1.83966 0
82.3068 2.71257 0
84.8273 5.99607 0
87.6296 0.327915 0
87.503 0.0619318 0
87.6949 -0.0997789 0
87.6127 -0.340262 0
88.2774 -0.186304 0
88.4596 -0.00837697 0
88.4295 0.10317 0
88.2366 0.434867 0
79.8041 0.496583 0
79.5657 1.30259 0
79.819 -1.1468 0
80.6459 -0.318092 0
81.2993 2.8266 0
79.7185 1.94842 0
79.1035 -2.83308 0
78.2893 -2.85775 0
90.3986 -0.487278 0
90.1478 -0.281266 0
89.9736 0.379104 0
90.9039 0.634347 0
79.692 3.84471 0
80.2029 2.56836 0
79.1943 -0.82319 0
79.031 -0.292449 0
78.8782 0.264983 0
79.5708 0.888537 0
76.4867 -0.872292 0
77.4687 -1.34508 0
92.0373 -3.68261 0
89.5691 -2.08288 0
89.0356 3.77226 0
92.4269 3.74727 0
77.8559 -0.864414 0
77.8782 -0.141806 0
77.8155 0.199242 0
77.9289 0.843918 0
78.183 0.0874767 0
78.2013 0.624084 0
78.3465 -0.343824 0
78.4872 -0.0205342 0
75.3338 -0.267677 0
73.0049 0.151252 0
84.9475 3.22799 0
88.9891 2.9917 0
87.6894 -2.52455 0
88.2903 -4.99343 0
77.5037 2.06297 0
77.0743 1.14904 0
77.8559 -0.0249839 0
77.6311 -0.0494709 0
80.2195 6.83269 0
78.1697 4.05237 0
79.885 -4.2967 0
78.8806 -8.10027 0
77.3247 0.784057 0
77.7509 0.42398 0
90.1503 0.528526 0
90.4967 1.15192 0
90.1796 -1.05145 0
90.1375 -0.205274 0
87.8451 -0.120986 0
88.0769 -0.0820838 0
88.046 0.0702575 0
87.9214 0.4024 0
92.5615 0.440658 0
91.4212 1.39616 0
91.4596 -0.562626 0
92.6995 -0.702232 0