# vtk DataFile Version 3.0
Unstructured Grid for Triangles
ASCII
DATASET UNSTRUCTURED_GRID
POINTS 29612 DOUBLE
-2.72397e-05 1.23686e-06 0
-2.95789e-05 9.5838e-07 0
-2.77865e-05 -3.1235e-07 0
0.0002024 5e-05 0
0.000203975 4.9875e-05 0
0.000205 5e-05 0
0.000203975 -4.9875e-05 0
0.0002024 -5e-05 0
0.000205 -5e-05 0
0.00020295 4.975e-05 0
0.00020295 -4.975e-05 0
0.000201925 4.9625e-05 0
0.000201925 -4.9625e-05 0
-5.29747e-05 -4.79887e-05 0
-5.5e-05 -5e-05 0
-5.24e-05 -5e-05 0
-5.05983e-05 -4.84325e-05 0
-4.98e-05 -5e-05 0
-4.72e-05 -5e-05 0
-4.83864e-05 -4.87761e-05 0
-4.46e-05 -5e-05 0
-4.59e-05 -4.84239e-05 0
-4.29453e-05 -4.24878e-05 0
-4.47486e-05 -4.20717e-05 0
-4.41829e-05 -4.36609e-05 0
-5.12578e-05 -4.62101e-05 0
-4.93077e-05 -4.53594e-05 0
-5.0706e-05 -4.39006e-05 0
-4.19243e-05 -4.77545e-05 0
-4.40307e-05 -4.71837e-05 0
-4.3691e-05 -4.86724e-05 0
-5.16129e-05 -4.20948e-05 0
-4.95355e-05 -4.15432e-05 0
-5.11646e-05 -4.0128e-05 0
-3.94697e-05 -4.81197e-05 0
-4.06302e-05 -4.55143e-05 0
-5.37257e-05 -3.88197e-05 0
-5.31099e-05 -4.07297e-05 0
-5.23982e-05 -3.88328e-05 0
-3.70063e-05 -4.72956e-05 0
-3.68e-05 -5e-05 0
-3.5308e-05 -4.85302e-05 0
-5.072e-05 -3.7867e-05 0
-4.85506e-05 -3.83975e-05 0
-4.90949e-05 -3.59622e-05 0
-3.37127e-05 -4.84331e-05 0
-3.16e-05 -5e-05 0
-3.26495e-05 -4.7415e-05 0
-5.5e-05 -3.5e-05 0
-5.31201e-05 -3.70361e-05 0
-5.28367e-05 -3.46817e-05 0
-3.63898e-05 -4.48809e-05 0
-3.83315e-05 -4.60336e-05 0
-3.26269e-06 -4.15503e-05 0
-5.99662e-06 -4.09556e-05 0
-5.46944e-06 -4.29488e-05 0
-5.29747e-05 4.79887e-05 0
-5.5e-05 5e-05 0
-5.5e-05 4.75e-05 0
-5.5e-05 4.5e-05 0
-5.34834e-05 4.29171e-05 0
-5.26943e-05 4.42611e-05 0
-5.34026e-05 4.60176e-05 0
-5.31099e-05 4.07297e-05 0
-5.11672e-05 4.01178e-05 0
-5.16129e-05 4.20948e-05 0
-5.24e-05 5e-05 0
-5.05983e-05 4.84325e-05 0
-5.31201e-05 3.70361e-05 0
-5.072e-05 3.7867e-05 0
-5.23982e-05 3.88328e-05 0
-4.8341e-05 4.69132e-05 0
-4.83679e-05 4.87539e-05 0
-5.28367e-05 3.46817e-05 0
-5.5e-05 3.25e-05 0
-5.25657e-05 3.28474e-05 0
-4.98e-05 5e-05 0
-5.30382e-05 3.125e-05 0
-4.19243e-05 4.77545e-05 0
-4.40015e-05 4.7335e-05 0
-4.25917e-05 4.63678e-05 0
-4.35138e-05 2.62661e-05 0
-4.14982e-05 2.74462e-05 0
-4.35654e-05 2.85217e-05 0
-4.59e-05 4.84239e-05 0
-4.36852e-05 4.87027e-05 0
-4.46e-05 5e-05 0
-5.33308e-05 2.92503e-05 0
-5.5e-05 2.75e-05 0
-5.23377e-05 2.76953e-05 0
-4.25282e-05 4.46352e-05 0
-4.09368e-05 4.35728e-05 0
-4.06302e-05 4.55143e-05 0
0.0002009 4.95e-05 0
0.0001998 5e-05 0
0.000199875 4.9375e-05 0
0.00019885 4.925e-05 0
0.0001972 5e-05 0
0.000197825 4.9125e-05 0
0.0001968 4.9e-05 0
0.000195775 4.8875e-05 0
0.0001946 5e-05 0
0.00019475 4.875e-05 0
0.000193725 4.8625e-05 0
0.000192 5e-05 0
0.0001927 4.85e-05 0
0.000191675 4.8375e-05 0
0.00019065 4.825e-05 0
0.0001894 5e-05 0
0.000189625 4.8125e-05 0
0.0001886 4.8e-05 0
0.0001868 5e-05 0
0.000187575 4.7875e-05 0
0.00018655 4.775e-05 0
0.000185515 4.8575e-05 0
0.0001842 5e-05 0
0.0001845 4.75e-05 0
0.000185525 4.7625e-05 0
0.000182564 4.829e-05 0
0.0001816 5e-05 0
0.00018245 4.725e-05 0
0.000183475 4.7375e-05 0
0.000181425 4.7125e-05 0
0.000180295 4.82657e-05 0
0.000179 5e-05 0
0.000179375 4.6875e-05 0
0.0001804 4.7e-05 0
0.000178168 4.80619e-05 0
0.0001764 5e-05 0
0.000177325 4.6625e-05 0
0.00017835 4.675e-05 0
0.000176428 4.76631e-05 0
0.0001763 4.65e-05 0
0.0001738 5e-05 0
0.0001751 4.84164e-05 0
0.000175275 4.6375e-05 0
0.000174025 4.75632e-05 0
0.0001712 5e-05 0
0.000172615 4.78449e-05 0
0.0001722 4.6e-05 0
0.000173225 4.6125e-05 0
0.00017015 4.575e-05 0
0.000171243 4.7381e-05 0
0.000169554 4.79999e-05 0
0.0001686 5e-05 0
0.000167507 4.79751e-05 0
0.000168498 4.64861e-05 0
0.000166 5e-05 0
0.00016558 4.71459e-05 0
0.000167135 4.62887e-05 0
0.0001681 4.55e-05 0
0.00016605 4.525e-05 0
0.000167075 4.5375e-05 0
0.000164059 4.61599e-05 0
0.00016394 4.79552e-05 0
0.000162881 4.6615e-05 0
0.000162975 4.4875e-05 0
0.000165025 4.5125e-05 0
0.000164 4.5e-05 0
0.000161754 4.58641e-05 0
0.000161722 4.78101e-05 0
0.000159956 4.58294e-05 0
0.000160925 4.4625e-05 0
0.00016195 4.475e-05 0
0.000157667 4.60322e-05 0
0.000158875 4.4375e-05 0
0.000159194 4.80155e-05 0
0.0001599 4.45e-05 0
0.00015785 4.425e-05 0
0.000155808 4.56757e-05 0
0.000155647 4.76701e-05 0
0.000154059 4.66642e-05 0
0.000153756 4.50083e-05 0
0.000154839 4.50446e-05 0
0.000156825 4.4125e-05 0
0.000151954 4.80508e-05 0
0.000154052 4.8477e-05 0
0.000153 5e-05 0
0.000154775 4.3875e-05 0
0.000152142 4.56625e-05 0
0.000152821 4.45753e-05 0
0.00015375 4.375e-05 0
0.0001504 5e-05 0
0.000149644 4.85168e-05 0
0.000151787 4.43178e-05 0
0.000152725 4.3625e-05 0
0.000150675 4.3375e-05 0
0.0001517 4.35e-05 0
0.000148119 4.50887e-05 0
0.000148072 4.75757e-05 0
0.000146584 4.63516e-05 0
0.000150008 4.6396e-05 0
0.000149351 4.4543e-05 0
0.00015061 4.46252e-05 0
0.0001476 4.3e-05 0
0.000148625 4.3125e-05 0
0.000146492 4.82975e-05 0
0.000144888 4.73562e-05 0
0.000146676 4.44259e-05 0
0.000145255 4.53656e-05 0
0.000145652 4.38669e-05 0
0.000141401 4.79821e-05 0
0.0001426 5e-05 0
0.00014 5e-05 0
0.000144374 4.38862e-05 0
0.00014555 4.275e-05 0
0.0001435 4.25e-05 0
0.000144525 4.2625e-05 0
0.000142746 4.38121e-05 0
0.000141288 4.43191e-05 0
0.000141707 4.32778e-05 0
0.00013921 4.38992e-05 0
0.000140355 4.5932e-05 0
0.000138302 4.5922e-05 0
0.000142912 4.58869e-05 0
0.000140592 4.30037e-05 0
0.00014145 4.225e-05 0
0.000136458 4.5869e-05 0
0.000137106 4.4063e-05 0
0.0001394 4.2e-05 0
0.000138259 4.28915e-05 0
0.000137484 4.77094e-05 0
0.000139166 4.78902e-05 0
0.00013586 4.78984e-05 0
0.000133449 4.78649e-05 0
0.000134717 4.61848e-05 0
0.000137256 4.25134e-05 0
0.000135323 4.24541e-05 0
0.000136325 4.1625e-05 0
0.000136122 4.2876e-05 0
0.000131206 4.47284e-05 0
0.000133168 4.56738e-05 0
0.000131773 4.65243e-05 0
0.000134756 4.40343e-05 0
0.000132747 4.36463e-05 0
0.000133483 4.26786e-05 0
0.000131081 4.1867e-05 0
0.000132382 4.22815e-05 0
0.000131507 4.3122e-05 0
0.000131059 4.80123e-05 0
0.00013325 4.125e-05 0
0.00012915 4.075e-05 0
0.00012982 4.18199e-05 0
0.000128915 4.26216e-05 0
0.000126366 4.47574e-05 0
0.000127331 4.30908e-05 0
0.000128781 4.44872e-05 0
0.000125336 4.28376e-05 0
0.000130218 4.31077e-05 0
0.000127894 4.16344e-05 0
0.000124774 4.69608e-05 0
0.000127668 4.64148e-05 0
0.000126591 4.8331e-05 0
0.000126722 4.18415e-05 0
0.000125768 4.11931e-05 0
0.000124326 4.13546e-05 0
0.00012505 4.025e-05 0
0.000122408 4.50118e-05 0
0.000120276 4.47432e-05 0
0.00012139 4.32235e-05 0
0.000124336 4.44132e-05 0
0.000123056 4.27595e-05 0
0.000122977 4.09049e-05 0
0.00012185 4.69217e-05 0
0.000122676 4.85947e-05 0
0.000120525 4.86094e-05 0
0.000121479 4.13153e-05 0
0.000119547 4.24221e-05 0
0.000120249 4.07448e-05 0
0.000119925 3.9625e-05 0
0.000119346 4.06114e-05 0
0.000117479 4.47279e-05 0
0.000114726 4.45259e-05 0
0.00011571 4.27814e-05 0
0.000119443 4.66611e-05 0
0.000117447 4.21596e-05 0
0.000118421 4.0752e-05 0
0.000117409 4.04437e-05 0
0.000116775 4.70073e-05 0
0.0001179 4.855e-05 0
0.000115473 4.84802e-05 0
0.00011685 3.925e-05 0
0.000117875 3.9375e-05 0
0.000115454 4.00551e-05 0
0.0001148 3.9e-05 0
0.000115825 3.9125e-05 0
0.000111704 4.23398e-05 0
0.000113786 4.26731e-05 0
0.000112589 4.43871e-05 0
0.000113234 4.06671e-05 0
0.000114754 4.13371e-05 0
0.0001106 4.42326e-05 0
0.000109703 4.24261e-05 0
0.00011275 3.875e-05 0
0.000113775 3.8875e-05 0
0.000110211 4.80875e-05 0
0.000108244 4.71951e-05 0
0.000109312 4.58413e-05 0
0.000111755 3.99116e-05 0
0.00010944 3.92972e-05 0
0.000110415 4.05876e-05 0
0.000108839 4.07536e-05 0
0.000106472 4.76905e-05 0
0.000107274 4.57868e-05 0
0.000108011 3.92415e-05 0
0.000106885 4.04365e-05 0
0.000106625 3.88708e-05 0
0.000105286 4.19254e-05 0
0.000105055 3.95469e-05 0
0.000104215 4.39764e-05 0
0.000106346 4.40629e-05 0
0.000100945 4.51249e-05 0
0.000102825 4.5614e-05 0
0.000101189 4.68452e-05 0
0.000107625 3.8125e-05 0
0.000105575 3.7875e-05 0
0.0001066 3.8e-05 0
0.000103352 4.76905e-05 0
0.000101803 4.8465e-05 0
0.000103685 3.89398e-05 0
0.00010245 3.8825e-05 0
0.000103525 3.7625e-05 0
0.000101092 3.99779e-05 0
0.000101267 3.82619e-05 0
0.000101382 4.2025e-05 0
0.000103187 4.05286e-05 0
0.000103359 4.24605e-05 0
9.87383e-05 4.5447e-05 0
9.99411e-05 4.35161e-05 0
9.744e-05 4.33145e-05 0
0.00010045 3.725e-05 0
0.000101475 3.7375e-05 0
9.70845e-05 4.65215e-05 0
9.52614e-05 4.67664e-05 0
9.61768e-05 4.49944e-05 0
9.9729e-05 3.87704e-05 0
9.78901e-05 3.9598e-05 0
9.85823e-05 3.81492e-05 0
9.62289e-05 3.93709e-05 0
9.74259e-05 3.81279e-05 0
9.7375e-05 3.6875e-05 0
9.63045e-05 3.76631e-05 0
9.58e-05 5e-05 0
9.32e-05 5e-05 0
9.47542e-05 4.8457e-05 0
9.49675e-05 3.85246e-05 0
9.36214e-05 3.89472e-05 0
9.40006e-05 3.74906e-05 0
9.66411e-05 4.12573e-05 0
9.44241e-05 4.07079e-05 0
9.03569e-05 4.24993e-05 0
9.21701e-05 4.02409e-05 0
9.27439e-05 4.27744e-05 0
8.89795e-05 4.09067e-05 0
9.03071e-05 4.0248e-05 0
9.25447e-05 3.77721e-05 0
9.3275e-05 3.6375e-05 0
9.07708e-05 3.87127e-05 0
9.11303e-05 3.70839e-05 0
9.11933e-05 4.55145e-05 0
9.30678e-05 4.73279e-05 0
9.11886e-05 4.82603e-05 0
8.87724e-05 3.88076e-05 0
8.99595e-05 3.75116e-05 0
9.02e-05 3.6e-05 0
8.89241e-05 3.6954e-05 0
8.36977e-05 4.59472e-05 0
8.36223e-05 4.83578e-05 0
8.20467e-05 4.74142e-05 0
8.71227e-05 4.03557e-05 0
8.61e-05 3.55e-05 0
8.68368e-05 3.65714e-05 0
8.5484e-05 3.6588e-05 0
8.47735e-05 4.02845e-05 0
8.23121e-05 4.21599e-05 0
8.26582e-05 3.98147e-05 0
8.46943e-05 4.2454e-05 0
8.38832e-05 3.78613e-05 0
8.35569e-05 3.63808e-05 0
8.44098e-05 3.6291e-05 0
8.5075e-05 3.5375e-05 0
8.51465e-05 4.77163e-05 0
8.3025e-05 3.5125e-05 0
8.22824e-05 3.68659e-05 0
8.1446e-05 3.57362e-05 0
8.05884e-05 3.71794e-05 0
7.53471e-05 4.77524e-05 0
7.38313e-05 4.73927e-05 0
7.39102e-05 4.61526e-05 0
7.9826e-05 3.58588e-05 0
7.88607e-05 3.76287e-05 0
7.81733e-05 3.57987e-05 0
8.16783e-05 3.84471e-05 0
8.07975e-05 4.04095e-05 0
7.52138e-05 4.04775e-05 0
7.67682e-05 4.17043e-05 0
7.49617e-05 4.21803e-05 0
7.52903e-05 3.84008e-05 0
7.38293e-05 3.93136e-05 0
[...]
CELL_DATA 58684
VECTORS velocity DOUBLE
74.2446 0.337063 0
84.9712 -0.000316813 0
84.9475 0.00032942 0
84.9737 -0.00023275 0
84.9484 1.40001e-05 0
84.9802 -0.00169616 0
84.9545 0.0016338 0
77.8828 -0.00123144 0
77.8991 -0.0242 0
78.0125 -0.00237761 0
78.1298 -0.0047691 0
78.1947 -0.407062 0
77.9362 -0.107881 0
78.2766 -0.134368 0
77.9143 -0.182128 0
78.4781 -0.169688 0
77.8836 -0.111034 0
78.8424 -0.157483 0
77.9672 -0.313575 0
79.3527 -0.111794 0
77.8954 -0.114252 0
78.8108 -0.369136 0
85.2854 -2.17076 0
77.8632 0.0121825 0
77.8682 0.0504061 0
77.8625 0.0245323 0
77.9093 0.14009 0
77.8987 0.0230805 0
77.9027 0.185862 0
78.0091 0.0484688 0
77.8926 0.143298 0
77.9629 0.033017 0
77.8564 0.141785 0
78.3481 0.161804 0
78.057 1.12862 0
78.1997 0.0686204 0
77.9037 0.176876 0
78.4275 0.353027 0
84.9836 -0.00169043 0
84.9863 -0.000695438 0
84.9952 -0.00321639 0
84.9993 -0.0042634 0
85.0019 -0.00151581 0
85.0086 -0.00404396 0
85.012 -0.00566569 0
85.0148 -0.00408066 0
85.0177 -0.00121341 0
85.0244 -0.00642197 0
85.0271 -0.00603632 0
85.0288 -0.00184759 0
85.0364 -0.00723107 0
85.0382 -0.00805368 0
85.0404 -0.00604174 0
85.0428 -0.00168931 0
85.0487 -0.0084225 0
85.0507 -0.00744555 0
85.052 -0.00226373 0
85.0603 -0.0103038 0
85.0618 -0.0106369 0
85.0628 -0.0072631 0
85.0667 -0.00138046 0
85.071 -0.0119322 0
85.0748 -0.00925864 0
85.0822 -0.00090777 0
85.0851 -0.0146214 0
85.0872 -0.0142446 0
85.0901 -0.0108757 0
85.0944 -0.00123631 0
85.0987 -0.0159623 0
85.1014 -0.0113243 0
85.1062 -0.00167774 0
85.1109 -0.0180697 0
85.1138 -0.0137522 0
85.1208 -0.0206503 0
85.1227 -0.00132764 0
85.1273 -0.0159622 0
85.1317 -0.0102838 0
85.1387 -0.00197254 0
85.1435 -0.022267 0
85.1592 -0.0177638 0
85.1454 -0.0182336 0
85.159 -0.00149278 0
85.1664 -0.0121173 0
85.1618 -0.0234358 0
85.1859 -0.0148696 0
85.18 -0.0198691 0
85.1793 -0.026668 0
85.1897 -0.0328425 0
85.2079 -0.0215903 0
85.2213 -0.0293657 0
85.1999 -0.0256253 0
85.2146 -0.036703 0
85.2301 -0.0289423 0
85.2281 -0.0282172 0
85.2356 -0.0394114 0
85.2643 -0.0360744 0
85.2475 -0.0318786 0
85.2565 -0.0423581 0
85.2746 -0.0483403 0
85.2793 -0.036217 0
85.3055 -0.0451166 0
85.2824 -0.0389395 0
85.3081 -0.0142037 0
85.3097 -0.0491542 0
85.3299 -0.046206 0
85.3216 -0.0511107 0
85.3329 -0.0141425 0
85.3365 -0.0543335 0
85.3532 -0.0607402 0
85.3744 -0.0340615 0
85.3699 -0.0365451 0
85.3542 -0.050269 0
85.39 -0.0652643 0
85.3904 -0.0268996 0
85.4229 -0.0589877 0
85.4086 -0.0381412 0
85.4492 -0.00184489 0
85.4324 -0.0663985 0
85.449 -0.0771607 0
85.4855 -0.0670533 0
85.5093 -0.0507787 0
85.4592 -0.0410519 0
85.4953 -0.0769284 0
85.5392 -0.0512536 0
85.5308 -0.0805058 0
85.5069 -0.0286609 0
85.5449 -0.0721104 0
85.5672 -0.0256451 0
85.5604 -0.0847572 0
85.5917 -0.0976947 0
85.6357 -0.057881 0
85.6243 -0.0797219 0
85.5981 -0.0364716 0
85.6692 -0.104508 0
85.6124 -0.0289393 0
85.6443 -0.103878 0
85.7205 -0.114991 0
85.74 -0.080169 0
85.7598 -0.100598 0
85.7095 -0.0970317 0
85.7407 -0.104885 0
85.7105 -0.0472728 0
85.7911 -0.121236 0
85.82 -0.132356 0
85.866 -0.0872547 0
85.7769 -0.0634989 0
85.8173 -0.113428 0
85.8414 -0.135629 0
85.8077 -0.0261376 0
85.9225 -0.143846 0
85.9368 -0.15966 0
85.9953 -0.0976911 0
85.8928 -0.0883795 0
85.9567 -0.133118 0
85.9809 -0.160999 0
85.9243 -0.0274434 0
86.0009 -0.186134 0
86.0595 -0.200051 0
86.0869 -0.143491 0
86.0761 -0.164032 0
86.1448 -0.153125 0
86.1104 -0.207838 0
86.1322 -0.0544969 0
86.1238 -0.194761 0
86.2124 -0.200903 0
86.1992 -0.0665376 0
86.2925 -0.242017 0
86.3285 -0.224595 0
86.3123 -0.140936 0
86.4012 -0.111353 0
86.2947 -0.246062 0
86.3388 -0.273071 0
86.3685 -0.0564218 0
86.4305 -0.278977 0
86.4928 -0.289945 0
86.4037 -0.207729 0
86.4927 -0.130404 0
86.5404 -0.176438 0
86.5261 -0.331857 0
86.6065 -0.114978 0
86.611 -0.311366 0
86.6531 -0.307703 0
86.6793 -0.360933 0
86.6537 -0.00307083 0
86.8063 -0.363055 0
86.6732 -0.278662 0
86.8329 -0.254011 0
86.9203 -0.299149 0
86.8622 -0.403108 0
86.938 -0.409479 0
86.7991 -0.0911504 0
86.9888 -0.398533 0
87.0178 -0.462122 0
87.0377 -0.445025 0
87.1979 -0.103642 0
87.0293 -0.354032 0
87.2262 -0.513426 0
87.312 -0.392292 0
87.2181 -0.329284 0
87.3087 -0.546797 0
87.2832 -0.537042 0
87.1779 -0.0916693 0
87.4196 -0.602103 0
87.4675 -0.562861 0
87.7345 -0.103726 0
87.597 -0.621145 0
87.4081 -0.429995 0
87.7393 -0.392916 0
87.8136 -0.50881 0
87.671 -0.563137 0
87.6948 -0.670756 0
87.8066 -0.241015 0
87.9188 -0.642796 0
87.8555 -0.747192 0
88.0983 -0.752328 0
88.0869 -0.00793226 0
88.0495 -0.621926 0
88.1172 -0.779103 0
87.9505 -0.192965 0
88.1968 -0.820721 0
88.3273 -0.464884 0
88.2511 -0.859553 0
88.5465 -0.256372 0
88.4749 -0.727139 0
88.4277 -0.862484 0
88.3856 -0.133531 0
88.6012 -0.887271 0
88.832 -0.856697 0
88.6465 -0.738264 0
88.7124 -0.436919 0
88.8703 -0.988248 0
88.9112 -0.380409 0
89.123 -0.0657031 0
88.8139 -0.771117 0
89.0188 -0.970379 0
89.1193 -1.04679 0
89.1917 -0.319473 0
89.3048 -0.891095 0
89.4934 -0.969929 0
89.3045 -0.111992 0
89.6741 -0.935051 0
89.5651 -1.05335 0
89.4097 -0.78297 0
89.5108 -0.374485 0
89.6437 -0.434038 0
89.7567 -1.04956 0
89.7569 -0.00306819 0
89.8813 -1.11934 0
90.0437 -1.05215 0
89.9903 -1.11307 0
90.043 -0.23729 0
90.132 -0.899913 0
90.4251 -0.897377 0
90.0486 -0.00111538 0
90.5181 -1.07218 0
90.7365 -0.899992 0
90.3405 -0.656517 0
90.1926 -0.268503 0
90.7221 -1.01986 0
90.3695 -0.329027 0
90.2642 -0.0127452 0
90.6735 -0.676771 0
91.0252 -0.912169 0
91.2128 -0.843721 0
90.4429 -0.0577377 0
91.1939 -0.562987 0
91.3181 -0.745236 0
90.3604 0.0396633 0
91.4766 -0.727793 0
91.688 -0.592815 0
91.3236 -0.180678 0
90.1858 0.0127672 0
91.8719 -0.363775 0
91.0565 0.236434 0
91.3037 0.351824 0
91.756 -0.219013 0
91.545 0.0315817 0
92.2456 0.0272572 0
90.3389 0.389764 0
92.2229 -0.0747947 0
91.8167 0.480564 0
92.4711 0.56908 0
90.2393 0.115781 0
92.4647 1.26475 0
92.2527 1.49196 0
88.9958 0.199914 0
92.6813 0.962611 0
92.6103 1.43443 0
90.3228 1.50557 0
90.0454 0.722502 0
91.5453 1.16354 0
92.531 1.96416 0
89.241 0.334285 0
92.0741 2.84612 0
92.7142 2.20729 0
92.7325 2.43355 0
88.5336 1.42724 0
91.1241 2.96258 0
92.1488 3.23317 0
88.5053 0.237952 0
91.9702 3.73182 0
91.6305 3.60444 0
90.7099 5.22346 0
86.3019 0.398232 0
91.8238 4.92945 0
89.8523 3.55732 0
88.0125 1.57526 0
87.6518 2.99775 0
91.6003 5.43374 0
90.4961 5.87656 0
86.7366 0.612584 0
90.5665 6.70096 0
84.9577 0.00163458 0
84.9601 0.000682449 0
84.9678 0.00270613 0
84.9715 0.00367847 0
84.9734 0.00148012 0
84.9796 0.00370273 0
84.9826 0.00497507 0
84.9852 0.00407555 0
84.988 0.00120562 0
84.994 0.0054928 0
84.9966 0.00539343 0
84.9976 0.00180395 0
85.0046 0.00650829 0
85.0064 0.00733362 0
85.0084 0.00550573 0
85.0104 0.00165531 0
85.016 0.00802033 0
85.0181 0.00709188 0
85.0194 0.00220953 0
85.0272 0.00991944 0
85.0288 0.0101402 0
85.0366 0.0119943 0
85.0297 0.00696791 0
85.0414 0.00806592 0
85.0481 0.0130293 0
85.0412 0.00918515 0
85.0538 0.0140816 0
85.0565 0.0107758 0
85.0629 0.0161057 0
85.0544 0.00860457 0
85.0673 0.011313 0
85.0752 0.0183021 0
85.0681 0.00883557 0
85.087 0.0210946 0
85.0884 0.0196932 0
85.0929 0.0148386 0
85.0819 0.0110242 0
85.0937 0.0161894 0
85.1066 0.0152913 0
85.0982 0.0104487 0
85.1192 0.0271221 0
85.1166 0.0115019 0
85.1266 0.0180226 0
85.1152 0.0140909 0
85.1292 0.0238057 0
85.1475 0.0271317 0
85.1536 0.0152746 0
85.1446 0.0251352 0
85.1628 0.0292 0
85.1654 0.0329948 0
85.1835 0.0166313 0
85.1765 0.0220026 0
85.19 0.0299062 0
85.2031 0.0424479 0
85.2083 0.0203131 0
85.2138 0.0331566 0
85.2238 0.0449901 0
85.2347 0.0262466 0
85.2163 0.0323848 0
85.2451 0.049816 0
85.2467 0.0484545 0
85.254 0.0306835 0
85.2659 0.0217783 0
85.2763 0.0456305 0
85.2201 0.0142396 0
85.2929 0.0522669 0
85.3253 0.0628243 0
85.3082 0.0531391 0
85.2927 0.0312181 0
85.3381 0.0636245 0
85.3457 0.0554184 0
85.3653 0.0275042 0
85.3277 0.0519802 0
85.3703 0.0585838 0
85.3882 0.0675079 0
85.3355 0.0161748 0
85.3764 0.0485042 0
85.4251 0.0781367 0
85.3861 0.0396013 0
85.4372 0.0674924 0
85.4709 0.0816706 0
85.4442 0.0602023 0
85.4661 0.0241218 0
85.482 0.0715392 0
85.5013 0.0825931 0
85.4827 0.0209913 0
85.5286 0.0908276 0
85.492 0.0667047 0
85.5541 0.0736817 0
85.5107 0.0514166 0
85.5665 0.0982695 0
85.633 0.116956 0
85.5902 0.0288285 0
85.5875 0.0807267 0
85.6624 0.123686 0
85.638 0.0877271 0
85.5764 0.0357248 0
85.6808 0.114493 0
85.7072 0.119711 0
85.6657 0.029514 0
85.715 0.0518795 0
85.7453 0.103445 0
85.7633 0.139183 0
85.6874 0.0745415 0
85.7983 0.132995 0
85.8234 0.143459 0
85.8322 0.0472289 0
85.8021 0.0872546 0
85.8788 0.160182 0
85.8746 0.136695 0
85.7661 0.046169 0
85.9023 0.153157 0
85.9586 0.163024 0
85.9368 0.0642436 0
85.9202 0.141008 0
86.0237 0.19588 0
86.0113 0.150405 0
85.8736 0.0487708 0
86.0517 0.18205 0
86.1317 0.22487 0
86.0071 0.0645383 0
86.1204 0.178498 0
86.1027 0.0826267 0
86.1705 0.189645 0
86.076 0.107553 0
86.2016 0.238858 0
86.2701 0.240268 0
86.1758 0.0667455 0
86.2609 0.23631 0
86.3512 0.274525 0
86.3221 0.069611 0
86.2277 0.199646 0
86.3474 0.23671 0
86.4096 0.279297 0
86.2888 0.0437819 0
86.4274 0.255795 0
86.5455 0.336066 0
86.5298 0.283332 0
86.4707 0.0848155 0
86.62 0.299069 0
86.409 0.108397 0
86.4324 0.247917 0
86.6026 0.328973 0
86.7319 0.375209 0
86.7467 0.386556 0
86.4351 0.00460133 0
86.864 0.44313 0
86.8805 0.43083 0
86.9237 0.384555 0
86.8606 0.18685 0
86.9913 0.202627 0
86.9342 0.429401 0
86.6757 0.11533 0
87.0826 0.48416 0
87.077 0.478007 0
87.0943 0.430596 0
86.9827 0.125363 0
87.1918 0.478068 0
87.3397 0.601568 0
87.1967 0.224082 0
87.121 0.235102 0
87.3049 0.487548 0
87.4985 0.624195 0
87.0238 0.14492 0
87.5468 0.662409 0
87.6007 0.641399 0
87.4059 0.123915 0
87.7775 0.737278 0
87.8209 0.704299 0
87.9243 0.605862 0
87.6676 0.263314 0
87.6206 0.298159 0
87.8102 0.680728 0
87.5002 0.191135 0
88.0137 0.81404 0
88.0846 0.763076 0
88.0974 0.702992 0
87.7897 0.105208 0
88.306 0.825482 0
88.3328 0.843387 0
88.148 0.470382 0
88.4606 0.660436 0
88.1768 0.380069 0
88.4056 0.805924 0
88.0363 0.241211 0
88.6 0.935038 0
88.6363 0.899023 0
88.0975 0.19591 0
88.7304 0.827845 0
88.9559 0.947786 0
88.8463 0.930432 0
88.7332 0.215402 0
89.211 0.983839 0
89.2649 1.05402 0
88.6583 0.640525 0
89.1532 0.777951 0
88.7438 0.388509 0
89.5035 1.10216 0
88.9851 0.120373 0
89.5845 1.06388 0
89.585 1.00169 0
88.7595 0.0953481 0
89.5163 0.910022 0
89.9705 1.06269 0
90.081 1.06934 0
89.4856 0.27277 0
90.1745 1.03681 0
90.2303 1.1071 0
89.4294 0.682486 0
90.2647 0.718262 0
89.6919 0.259674 0
90.4252 1.09742 0
89.7398 0.0940016 0
90.5993 1.0149 0
90.7056 0.995525 0
89.5206 0.0703901 0
90.5246 0.823777 0
91.0446 0.912682 0
91.2298 0.845174 0
90.0733 0.161104 0
91.0546 0.789062 0
91.3947 0.790229 0
90.6333 0.6952 0
91.2083 0.374044 0
90.2049 0.0949836 0
91.1469 0.707119 0
90.261 0.0327219 0
91.6728 0.677164 0
91.7749 0.527821 0
90.1136 0.0365409 0
91.4957 0.231423 0
91.9584 0.241715 0
92.1676 0.105122 0
90.3841 -0.105236 0
92.2771 -0.099842 0
92.3349 -0.234209 0
90.5661 -0.293177 0
92.3572 -0.265654 0
91.5938 -0.690281 0
90.7689 -0.121762 0
90.5528 -0.0196397 0
92.5172 -0.556848 0
92.2974 -0.943934 0
92.74 -1.12665 0
90.2774 -0.00981051 0
92.0501 -1.38452 0
92.7771 -1.85696 0
90.2854 -0.13282 0
91.8733 -1.3469 0
92.7765 -2.39387 0
91.3669 -1.80778 0
90.3083 -0.675814 0
92.5999 -2.7384 0
92.4765 -3.02891 0
91.275 -1.15414 0
90.8286 -3.17843 0
88.8527 -2.61048 0
92.1264 -3.06134 0
89.2002 -0.41375 0
92.1391 -4.01019 0
89.6621 7.29723 0
90.3775 6.52816 0
85.0718 1.92986 0
89.5627 7.25366 0
87.3581 6.63539 0
88.9113 7.88349 0
85.6498 0.76036 0
87.947 8.0844 0
86.7919 7.95518 0
84.4256 0.963858 0
86.8616 8.4813 0
92.0612 -4.42801 0
89.4225 -0.255971 0
91.8089 -4.76965 0
90.5984 -5.15968 0
90.0412 -4.44441 0
88.5959 -0.273307 0
90.8427 -5.75049 0
85.5825 7.74639 0
90.2127 -7.02327 0
88.3743 -1.40958 0
89.8968 -6.78889 0
89.0477 -7.75049 0
83.2856 2.36573 0
88.6188 -7.60639 0
89.7862 -4.25625 0
89.1055 -6.89512 0
87.2683 -5.10286 0
86.33 -0.839954 0
88.1802 -6.99837 0
87.402 -7.4065 0
84.962 8.17389 0
87.4705 -7.41841 0
87.1423 -0.457325 0
86.4558 -7.76844 0
85.9452 -8.47331 0
85.6691 -0.565617 0
84.8673 -8.61575 0
85.3766 -6.32591 0
83.5418 -0.654707 0
83.8632 -8.76694 0
83.9508 -4.86198 0
85.6367 -3.83317 0
84.4111 -7.50671 0
83.3104 -7.85585 0
85.9478 4.39791 0
82.3914 0.530136 0
85.3642 2.94087 0
84.0449 -0.0758729 0
82.7633 -8.52107 0
84.5918 7.74317 0
82.1214 0.38429 0
84.032 6.58571 0
81.905 -8.38456 0
83.6193 -1.71536 0
81.2138 -6.1193 0
84.0129 8.82303 0
81.0112 2.02326 0
83.914 8.74794 0
81.7244 7.2931 0
81.2997 0.412161 0
82.3458 7.67036 0
81.8163 -6.36873 0
83.1405 -0.473298 0
81.0572 -8.5117 0
81.077 -8.27824 0
82.7143 8.23728 0
80.8075 7.85124 0
80.6094 0.0408456 0
81.859 8.10655 0
80.0238 5.0759 0
80.6086 2.28551 0
80.139 -8.45934 0
81.0804 -1.09659 0
80.4718 -8.33433 0
79.6794 8.3024 0
79.5205 -7.72825 0
80.2104 -1.07678 0
79.8338 -3.39451 0
78.2647 -7.42252 0
81.2967 -4.10447 0
78.1254 -7.17898 0
79.7044 -0.289516 0
77.2119 -6.85802 0
79.3735 2.86156 0
79.9794 0.460586 0
79.2594 6.97132 0
79.3596 0.11615 0
79.0495 8.17922 0
78.7682 7.67546 0
79.0365 0.184915 0
78.0131 6.71672 0
78.8069 0.133319 0
78.599 -6.41564 0
79.7033 -0.575027 0
79.8243 6.04127 0
77.9387 0.731189 0
77.568 6.30726 0
77.0977 -6.81851 0
79.8163 -0.230077 0
75.4715 -5.82952 0
77.9069 -0.435877 0
76.2935 -5.73676 0
78.6384 2.54662 0
77.8591 0.118677 0
79.3218 -5.22126 0
77.8617 -0.111418 0
75.5962 -5.40045 0
76.9773 5.69039 0
76.9999 -4.26266 0
77.887 -0.240797 0
75.9006 -4.62606 0
77.9996 3.13931 0
75.8479 1.99306 0
76.4791 4.9191 0
77.6867 -0.981133 0
75.7447 -5.12657 0
77.8369 0.397449 0
76.3958 6.6393 0
77.7634 -2.37597 0
77.8605 -0.0834437 0
75.4126 -4.62381 0
76.1276 5.93103 0
77.8683 0.711366 0
76.0813 4.63503 0
75.8039 4.57527 0
77.8309 0.376136 0
75.0062 4.07323 0
74.5582 -4.154 0
77.8576 -0.292126 0
74.2571 -4.14571 0
76.6244 -1.9765 0
77.865 -0.199284 0
73.6317 -2.82566 0
75.0662 5.06861 0
77.7968 0.616664 0
76.3068 3.2466 0
74.2414 -2.56608 0
77.7788 -0.308507 0
73.5938 -2.33783 0
73.9518 3.72988 0
77.7894 0.263378 0
74.3526 3.51248 0
74.6518 2.86632 0
77.8596 0.0348747 0
73.8183 3.05258 0
74.934 -1.51095 0
77.7359 -0.537641 0
74.2262 -1.33133 0
73.0523 -0.847991 0
77.1018 -0.92409 0
73.102 -0.717186 0
76.8119 0.959203 0
77.8099 0.0760741 0
75.9201 2.43238 0
73.5981 2.45853 0
77.6929 0.0585908 0
73.1747 1.55387 0
77.4321 -0.235037 0
77.8483 -0.110504 0
73.1002 -0.235649 0
73.6245 -0.0922772 0
77.8284 -0.0654594 0
75.832 0.308318 0
73.7908 0.527387 0
77.8372 -0.0615633 0
77.1956 -5.65132 0
77.9423 -0.42742 0
77.8517 0.130514 0
78.0252 6.87874 0
78.9627 -7.73333 0
82.0288 -0.944781 0
80.4425 0.995505 0
81.6206 8.61203 0
77.8125 0.276266 0
74.5143 4.84992 0
73.994 -2.83336 0
77.8168 -0.198077 0
77.896 -0.56629 0
77.5786 -3.66527 0
77.9688 0.795066 0
77.9143 0.198166 0
77.8224 -0.000852019 0
73.6681 2.05191 0
79.3191 0.465956 0
78.4095 1.57389 0
78.7363 -1.37137 0
80.2565 -0.690375 0
85.7553 -1.27258 0
85.34 -8.46143 0
87.2108 8.07937 0
85.3015 0.469491 0
77.7715 1.66182 0
79.5973 7.99629 0
78.5346 -7.07631 0
79.2684 -2.31223 0
76.9189 -1.45771 0
74.6212 -0.221058 0
76.1645 5.82513 0
78.0926 1.88984 0
77.9303 -1.78706 0
74.7837 -4.62913 0
91.5694 -5.40579 0
88.298 -0.664787 0
87.8955 0.794806 0
91.9845 4.51138 0
77.964 -0.808712 0
77.888 -0.0444434 0
77.8802 0.145823 0
78.964 0.756477 0
83.0812 0.736831 0
82.7093 4.10539 0
81.1955 -1.98852 0
84.2557 -1.7461 0
81.6333 4.89605 0
84.5236 8.30618 0
83.3632 -8.68277 0
82.5257 -1.92029 0
86.5058 1.61313 0
87.5831 5.03392 0
86.1659 -2.79419 0
87.273 -0.0449398 0
90.2502 -0.262056 0
92.7153 -1.37176 0
92.5096 0.580862 0
89.5189 0.0331545 0
90.2424 -0.00107223 0
91.8235 0.50874 0
91.5962 -0.501774 0
90.459 0.0527452 0
79.0308 -1.44662 0
78.467 -0.573186 0
78.3842 1.23436 0
79.2004 0.950091 0
78.221 1.22302 0
77.8862 0.23794 0
77.8588 -0.104835 0
78.1435 -1.12325 0
89.2589 0.963933 0
90.4696 1.90653 0
89.5661 -1.15948 0
89.7212 -0.174801 0
75.9641 -0.958503 0
77.8473 -0.154212 0
77.4722 -0.437389 0
77.866 -0.371401 0
77.8535 0.202049 0
77.8826 0.96108 0
90.7969 0.937438 0
89.9054 0.146556 0
90.157 0.000261446 0
90.4735 -1.02804 0
81.6596 -0.0399179 0
80.8983 -2.82355 0
81.9552 1.80468 0
80.6679 0.44832 0
77.8279 4.0422 0
77.3088 7.31439 0
77.064 -6.2568 0
78.2966 -3.2248 0
78.7948 -2.11028 0
77.5374 -2.22786 0
77.9172 4.63545 0
78.2248 2.22384 0
90.4782 0.0632467 0
90.2713 0.148163 0
90.3998 -0.0570685 0
91.342 0.0483025 0
79.7384 -5.42042 0
80.8181 -5.2591 0
80.4121 4.63923 0
80.9215 8.53162 0
79.0857 -3.97672 0
80.2588 -2.31241 0
80.0904 3.1159 0
79.2624 1.5361 0
89.8861 1.13904 0
89.2759 0.135472 0
89.5894 -0.00686683 0
89.3846 -1.0301 0
77.3105 1.01335 0
77.8446 0.0286869 0
90.2322 -0.0488128 0
90.8987 -0.315983 0
90.5962 0.221497 0
90.0029 0.0345711 0
78.8331 -0.955996 0
78.3562 -1.32997 0
79.1426 1.74111 0
78.2329 0.731566 0
77.8934 -0.145037 0
78.151 -0.694245 0
77.9674 0.311066 0
77.8681 0.134243 0
74.1038 1.71165 0
76.9553 1.5235 0
86.9128 -3.15877 0
90.2018 -6.36932 0
91.1417 5.82894 0
86.626 2.28111 0
76.8037 -2.31067 0
74.7363 -2.89647 0
88.4099 0.159451 0
88.7194 0.895552 0
87.5182 0.076299 0
88.2633 0.867116 0
88.7296 -0.87629 0
88.5762 -0.139449 0
87.9537 -0.72405 0
87.9032 -0.0112972 0
89.7867 -0.207679 0
89.8708 -0.604675 0
89.7175 0.38074 0
89.4403 0.00419243 0
77.8559 0.176774 0
77.6821 0.535725 0
76.4519 0.45153 0
74.1974 0.844883 0
77.7919 -0.248213 0
77.8398 -0.167568 0
77.3792 0.273788 0
77.3098 -0.749584 0
92.6032 -2.79225 0
89.5129 -1.76656 0
90.4804 2.24706 0
92.718 1.66846 0
78.0283 -0.0627549 0
78.1309 -0.361655 0
77.8941 0.0523471 0
78.3105 0.259857 0
89.0193 -0.202701 0
89.0192 -0.532821 0
89.0736 0.354644 0
88.587 0.114022 0
87.2654 0.168182 0
87.4769 0.547916 0
87.4796 -0.639456 0
87.3862 -0.153805 0
78.4791 -0.896536 0
79.3931 -2.13246 0
78.8369 1.61025 0
78.4601 1.27034 0
79.1579 2.87778 0
77.5846 1.84893 0
78.1275 -1.92042 0
78.7871 -2.78996 0
90.8979 -0.562037 0
91.773 0.235196 0
91.9435 -0.224007 0
91.3179 0.611749 0
77.694 -1.14552 0
77.8115 -1.36176 0
77.8353 1.07837 0
77.3398 1.30487 0
87.2357 0.56546 0
86.899 0.166459 0
86.9789 -0.104028 0
87.1582 -0.47858 0
85.0624 4.2706 0
87.0319 7.13647 0
86.5247 -8.40002 0
86.085 -3.35112 0
75.2131 -3.41906 0
77.5437 -3.50914 0
84.6925 -3.06384 0
85.3192 -1.09775 0
83.7122 0.453534 0
86.9507 3.11558 0
74.8011 4.61886 0
76.7164 2.72871 0
88.2173 -0.0501248 0
88.3982 -0.552888 0
88.2723 0.369929 0
88.1687 0.10426 0
88.7049 -0.371186 0
88.5121 -1.52411 0
89.0554 2.10131 0
88.0924 0.27426 0
83.0916 1.39641 0
81.3762 0.349989 0
82.4827 -0.335183 0
83.1247 -3.11096 0
90.5414 0.295388 0
90.7971 0.806395 0
90.9645 -0.881804 0
90.9573 -0.0208976 0
82.1301 -3.83055 0
83.2147 -1.83818 0
82.4445 2.71014 0
84.9464 5.99022 0
86.7245 0.334704 0
86.5932 0.0627191 0
86.8221 -0.102195 0
86.6962 -0.34651 0
87.5238 -0.19126 0
87.7511 -0.00635317 0
87.7139 0.104293 0
87.4634 0.446742 0
79.9278 0.496649 0
79.6861 1.30177 0
79.944 -1.14561 0
80.7808 -0.317717 0
81.4363 2.82387 0
79.8416 1.94679 0
79.2245 -2.83062 0
78.3967 -2.85832 0
90.2967 -0.496767 0
90.0572 -0.285365 0
89.9026 0.383962 0
90.7846 0.652936 0
79.8233 3.8421 0
80.3343 2.56649 0
79.3052 -0.824257 0
79.1358 -0.293455 0
78.9744 0.265398 0
79.6918 0.887437 0
76.5738 -0.873467 0
77.542 -1.34471 0
92.0057 -3.6861 0
89.5771 -2.08723 0
89.0827 3.77016 0
92.3904 3.75279 0
77.9024 -0.858602 0
77.8851 -0.141386 0
77.8265 0.195746 0
77.9759 0.840217 0
78.2394 0.0865556 0
78.2645 0.623065 0
78.4161 -0.341778 0
78.564 -0.0194012 0
75.4344 -0.268156 0
73.116 0.151737 0
85.0634 3.22381 0
89.0269 2.98934 0
87.753 -2.52101 0
88.3565 -4.98518 0
77.5935 2.06412 0
77.1537 1.15134 0
77.8585 -0.0250406 0
77.6691 -0.0504068 0
80.3529 6.82975 0
78.2906 4.0523 0
80.0173 -4.29374 0
79.0125 -8.09692 0
77.3864 0.782251 0
77.7798 0.419799 0
89.7509 0.506578 0
90.1163 1.10824 0
89.7567 -1.02378 0
89.7511 -0.194084 0
87.0032 -0.125313 0
87.2858 -0.0842654 0
87.2497 0.0717943 0
87.0749 0.414921 0
92.4017 0.496698 0
91.342 1.41846 0
91.3214 -0.594219 0
92.5524 -0.754572 0