# vtk DataFile Version 3.0
Unstructured Grid for Triangles
ASCII
DATASET UNSTRUCTURED_GRID
POINTS 29612 DOUBLE
-2.72397e-05 1.23686e-06 0
-2.95789e-05 9.5838e-07 0
-2.77865e-05 -3.1235e-07 0
0.0002024 5e-05 0
0.000203975 4.9875e-05 0
0.000205 5e-05 0
0.000203975 -4.9875e-05 0
0.0002024 -5e-05 0
0.000205 -5e-05 0
0.00020295 4.975e-05 0
0.00020295 -4.975e-05 0
0.000201925 4.9625e-05 0
0.000201925 -4.9625e-05 0
-5.29747e-05 -4.79887e-05 0
-5.5e-05 -5e-05 0
-5.24e-05 -5e-05 0
-5.05983e-05 -4.84325e-05 0
-4.98e-05 -5e-05 0
-4.72e-05 -5e-05 0
-4.83864e-05 -4.87761e-05 0
-4.46e-05 -5e-05 0
-4.59e-05 -4.84239e-05 0
-4.29453e-05 -4.24878e-05 0
-4.47486e-05 -4.20717e-05 0
-4.41829e-05 -4.36609e-05 0
-5.12578e-05 -4.62101e-05 0
-4.93077e-05 -4.53594e-05 0
-5.0706e-05 -4.39006e-05 0
-4.19243e-05 -4.77545e-05 0
-4.40307e-05 -4.71837e-05 0
-4.3691e-05 -4.86724e-05 0
-5.16129e-05 -4.20948e-05 0
-4.95355e-05 -4.15432e-05 0
-5.11646e-05 -4.0128e-05 0
-3.94697e-05 -4.81197e-05 0
-4.06302e-05 -4.55143e-05 0
-5.37257e-05 -3.88197e-05 0
-5.31099e-05 -4.07297e-05 0
-5.23982e-05 -3.88328e-05 0
-3.70063e-05 -4.72956e-05 0
-3.68e-05 -5e-05 0
-3.5308e-05 -4.85302e-05 0
-5.072e-05 -3.7867e-05 0
-4.85506e-05 -3.83975e-05 0
-4.90949e-05 -3.59622e-05 0
-3.37127e-05 -4.84331e-05 0
-3.16e-05 -5e-05 0
-3.26495e-05 -4.7415e-05 0
-5.5e-05 -3.5e-05 0
-5.31201e-05 -3.70361e-05 0
-5.28367e-05 -3.46817e-05 0
-3.63898e-05 -4.48809e-05 0
-3.83315e-05 -4.60336e-05 0
-3.26269e-06 -4.15503e-05 0
-5.99662e-06 -4.09556e-05 0
-5.46944e-06 -4.29488e-05 0
-5.29747e-05 4.79887e-05 0
-5.5e-05 5e-05 0
-5.5e-05 4.75e-05 0
-5.5e-05 4.5e-05 0
-5.34834e-05 4.29171e-05 0
-5.26943e-05 4.42611e-05 0
-5.34026e-05 4.60176e-05 0
-5.31099e-05 4.07297e-05 0
-5.11672e-05 4.01178e-05 0
-5.16129e-05 4.20948e-05 0
-5.24e-05 5e-05 0
-5.05983e-05 4.84325e-05 0
-5.31201e-05 3.70361e-05 0
-5.072e-05 3.7867e-05 0
-5.23982e-05 3.88328e-05 0
-4.8341e-05 4.69132e-05 0
-4.83679e-05 4.87539e-05 0
-5.28367e-05 3.46817e-05 0
-5.5e-05 3.25e-05 0
-5.25657e-05 3.28474e-05 0
-4.98e-05 5e-05 0
-5.30382e-05 3.125e-05 0
-4.19243e-05 4.77545e-05 0
-4.40015e-05 4.7335e-05 0
-4.25917e-05 4.63678e-05 0
-4.35138e-05 2.62661e-05 0
-4.14982e-05 2.74462e-05 0
-4.35654e-05 2.85217e-05 0
-4.59e-05 4.84239e-05 0
-4.36852e-05 4.87027e-05 0
-4.46e-05 5e-05 0
-5.33308e-05 2.92503e-05 0
-5.5e-05 2.75e-05 0
-5.23377e-05 2.76953e-05 0
-4.25282e-05 4.46352e-05 0
-4.09368e-05 4.35728e-05 0
-4.06302e-05 4.55143e-05 0
0.0002009 4.95e-05 0
0.0001998 5e-05 0
0.000199875 4.9375e-05 0
0.00019885 4.925e-05 0
0.0001972 5e-05 0
0.000197825 4.9125e-05 0
0.0001968 4.9e-05 0
0.000195775 4.8875e-05 0
0.0001946 5e-05 0
0.00019475 4.875e-05 0
0.000193725 4.8625e-05 0
0.000192 5e-05 0
0.0001927 4.85e-05 0
0.000191675 4.8375e-05 0
0.00019065 4.825e-05 0
0.0001894 5e-05 0
0.000189625 4.8125e-05 0
0.0001886 4.8e-05 0
0.0001868 5e-05 0
0.000187575 4.7875e-05 0
0.00018655 4.775e-05 0
0.000185515 4.8575e-05 0
0.0001842 5e-05 0
0.0001845 4.75e-05 0
0.000185525 4.7625e-05 0
0.000182564 4.829e-05 0
0.0001816 5e-05 0
0.00018245 4.725e-05 0
0.000183475 4.7375e-05 0
0.000181425 4.7125e-05 0
0.000180295 4.82657e-05 0
0.000179 5e-05 0
0.000179375 4.6875e-05 0
0.0001804 4.7e-05 0
0.000178168 4.80619e-05 0
0.0001764 5e-05 0
0.000177325 4.6625e-05 0
0.00017835 4.675e-05 0
0.000176428 4.76631e-05 0
0.0001763 4.65e-05 0
0.0001738 5e-05 0
0.0001751 4.84164e-05 0
0.000175275 4.6375e-05 0
0.000174025 4.75632e-05 0
0.0001712 5e-05 0
0.000172615 4.78449e-05 0
0.0001722 4.6e-05 0
0.000173225 4.6125e-05 0
0.00017015 4.575e-05 0
0.000171243 4.7381e-05 0
0.000169554 4.79999e-05 0
0.0001686 5e-05 0
0.000167507 4.79751e-05 0
0.000168498 4.64861e-05 0
0.000166 5e-05 0
0.00016558 4.71459e-05 0
0.000167135 4.62887e-05 0
0.0001681 4.55e-05 0
0.00016605 4.525e-05 0
0.000167075 4.5375e-05 0
0.000164059 4.61599e-05 0
0.00016394 4.79552e-05 0
0.000162881 4.6615e-05 0
0.000162975 4.4875e-05 0
0.000165025 4.5125e-05 0
0.000164 4.5e-05 0
0.000161754 4.58641e-05 0
0.000161722 4.78101e-05 0
0.000159956 4.58294e-05 0
0.000160925 4.4625e-05 0
0.00016195 4.475e-05 0
0.000157667 4.60322e-05 0
0.000158875 4.4375e-05 0
0.000159194 4.80155e-05 0
0.0001599 4.45e-05 0
0.00015785 4.425e-05 0
0.000155808 4.56757e-05 0
0.000155647 4.76701e-05 0
0.000154059 4.66642e-05 0
0.000153756 4.50083e-05 0
0.000154839 4.50446e-05 0
0.000156825 4.4125e-05 0
0.000151954 4.80508e-05 0
0.000154052 4.8477e-05 0
0.000153 5e-05 0
0.000154775 4.3875e-05 0
0.000152142 4.56625e-05 0
0.000152821 4.45753e-05 0
0.00015375 4.375e-05 0
0.0001504 5e-05 0
0.000149644 4.85168e-05 0
0.000151787 4.43178e-05 0
0.000152725 4.3625e-05 0
0.000150675 4.3375e-05 0
0.0001517 4.35e-05 0
0.000148119 4.50887e-05 0
0.000148072 4.75757e-05 0
0.000146584 4.63516e-05 0
0.000150008 4.6396e-05 0
0.000149351 4.4543e-05 0
0.00015061 4.46252e-05 0
0.0001476 4.3e-05 0
0.000148625 4.3125e-05 0
0.000146492 4.82975e-05 0
0.000144888 4.73562e-05 0
0.000146676 4.44259e-05 0
0.000145255 4.53656e-05 0
0.000145652 4.38669e-05 0
0.000141401 4.79821e-05 0
0.0001426 5e-05 0
0.00014 5e-05 0
0.000144374 4.38862e-05 0
0.00014555 4.275e-05 0
0.0001435 4.25e-05 0
0.000144525 4.2625e-05 0
0.000142746 4.38121e-05 0
0.000141288 4.43191e-05 0
0.000141707 4.32778e-05 0
0.00013921 4.38992e-05 0
0.000140355 4.5932e-05 0
0.000138302 4.5922e-05 0
0.000142912 4.58869e-05 0
0.000140592 4.30037e-05 0
0.00014145 4.225e-05 0
0.000136458 4.5869e-05 0
0.000137106 4.4063e-05 0
0.0001394 4.2e-05 0
0.000138259 4.28915e-05 0
0.000137484 4.77094e-05 0
0.000139166 4.78902e-05 0
0.00013586 4.78984e-05 0
0.000133449 4.78649e-05 0
0.000134717 4.61848e-05 0
0.000137256 4.25134e-05 0
0.000135323 4.24541e-05 0
0.000136325 4.1625e-05 0
0.000136122 4.2876e-05 0
0.000131206 4.47284e-05 0
0.000133168 4.56738e-05 0
0.000131773 4.65243e-05 0
0.000134756 4.40343e-05 0
0.000132747 4.36463e-05 0
0.000133483 4.26786e-05 0
0.000131081 4.1867e-05 0
0.000132382 4.22815e-05 0
0.000131507 4.3122e-05 0
0.000131059 4.80123e-05 0
0.00013325 4.125e-05 0
0.00012915 4.075e-05 0
0.00012982 4.18199e-05 0
0.000128915 4.26216e-05 0
0.000126366 4.47574e-05 0
0.000127331 4.30908e-05 0
0.000128781 4.44872e-05 0
0.000125336 4.28376e-05 0
0.000130218 4.31077e-05 0
0.000127894 4.16344e-05 0
0.000124774 4.69608e-05 0
0.000127668 4.64148e-05 0
0.000126591 4.8331e-05 0
0.000126722 4.18415e-05 0
0.000125768 4.11931e-05 0
0.000124326 4.13546e-05 0
0.00012505 4.025e-05 0
0.000122408 4.50118e-05 0
0.000120276 4.47432e-05 0
0.00012139 4.32235e-05 0
0.000124336 4.44132e-05 0
0.000123056 4.27595e-05 0
0.000122977 4.09049e-05 0
0.00012185 4.69217e-05 0
0.000122676 4.85947e-05 0
0.000120525 4.86094e-05 0
0.000121479 4.13153e-05 0
0.000119547 4.24221e-05 0
0.000120249 4.07448e-05 0
0.000119925 3.9625e-05 0
0.000119346 4.06114e-05 0
0.000117479 4.47279e-05 0
0.000114726 4.45259e-05 0
0.00011571 4.27814e-05 0
0.000119443 4.66611e-05 0
0.000117447 4.21596e-05 0
0.000118421 4.0752e-05 0
0.000117409 4.04437e-05 0
0.000116775 4.70073e-05 0
0.0001179 4.855e-05 0
0.000115473 4.84802e-05 0
0.00011685 3.925e-05 0
0.000117875 3.9375e-05 0
0.000115454 4.00551e-05 0
0.0001148 3.9e-05 0
0.000115825 3.9125e-05 0
0.000111704 4.23398e-05 0
0.000113786 4.26731e-05 0
0.000112589 4.43871e-05 0
0.000113234 4.06671e-05 0
0.000114754 4.13371e-05 0
0.0001106 4.42326e-05 0
0.000109703 4.24261e-05 0
0.00011275 3.875e-05 0
0.000113775 3.8875e-05 0
0.000110211 4.80875e-05 0
0.000108244 4.71951e-05 0
0.000109312 4.58413e-05 0
0.000111755 3.99116e-05 0
0.00010944 3.92972e-05 0
0.000110415 4.05876e-05 0
0.000108839 4.07536e-05 0
0.000106472 4.76905e-05 0
0.000107274 4.57868e-05 0
0.000108011 3.92415e-05 0
0.000106885 4.04365e-05 0
0.000106625 3.88708e-05 0
0.000105286 4.19254e-05 0
0.000105055 3.95469e-05 0
0.000104215 4.39764e-05 0
0.000106346 4.40629e-05 0
0.000100945 4.51249e-05 0
0.000102825 4.5614e-05 0
0.000101189 4.68452e-05 0
0.000107625 3.8125e-05 0
0.000105575 3.7875e-05 0
0.0001066 3.8e-05 0
0.000103352 4.76905e-05 0
0.000101803 4.8465e-05 0
0.000103685 3.89398e-05 0
0.00010245 3.8825e-05 0
0.000103525 3.7625e-05 0
0.000101092 3.99779e-05 0
0.000101267 3.82619e-05 0
0.000101382 4.2025e-05 0
0.000103187 4.05286e-05 0
0.000103359 4.24605e-05 0
9.87383e-05 4.5447e-05 0
9.99411e-05 4.35161e-05 0
9.744e-05 4.33145e-05 0
0.00010045 3.725e-05 0
0.000101475 3.7375e-05 0
9.70845e-05 4.65215e-05 0
9.52614e-05 4.67664e-05 0
9.61768e-05 4.49944e-05 0
9.9729e-05 3.87704e-05 0
9.78901e-05 3.9598e-05 0
9.85823e-05 3.81492e-05 0
9.62289e-05 3.93709e-05 0
9.74259e-05 3.81279e-05 0
9.7375e-05 3.6875e-05 0
9.63045e-05 3.76631e-05 0
9.58e-05 5e-05 0
9.32e-05 5e-05 0
9.47542e-05 4.8457e-05 0
9.49675e-05 3.85246e-05 0
9.36214e-05 3.89472e-05 0
9.40006e-05 3.74906e-05 0
9.66411e-05 4.12573e-05 0
9.44241e-05 4.07079e-05 0
9.03569e-05 4.24993e-05 0
9.21701e-05 4.02409e-05 0
9.27439e-05 4.27744e-05 0
8.89795e-05 4.09067e-05 0
9.03071e-05 4.0248e-05 0
9.25447e-05 3.77721e-05 0
9.3275e-05 3.6375e-05 0
9.07708e-05 3.87127e-05 0
9.11303e-05 3.70839e-05 0
9.11933e-05 4.55145e-05 0
9.30678e-05 4.73279e-05 0
9.11886e-05 4.82603e-05 0
8.87724e-05 3.88076e-05 0
8.99595e-05 3.75116e-05 0
9.02e-05 3.6e-05 0
8.89241e-05 3.6954e-05 0
8.36977e-05 4.59472e-05 0
8.36223e-05 4.83578e-05 0
8.20467e-05 4.74142e-05 0
8.71227e-05 4.03557e-05 0
8.61e-05 3.55e-05 0
8.68368e-05 3.65714e-05 0
8.5484e-05 3.6588e-05 0
8.47735e-05 4.02845e-05 0
8.23121e-05 4.21599e-05 0
8.26582e-05 3.98147e-05 0
8.46943e-05 4.2454e-05 0
8.38832e-05 3.78613e-05 0
8.35569e-05 3.63808e-05 0
8.44098e-05 3.6291e-05 0
8.5075e-05 3.5375e-05 0
8.51465e-05 4.77163e-05 0
8.3025e-05 3.5125e-05 0
8.22824e-05 3.68659e-05 0
8.1446e-05 3.57362e-05 0
8.05884e-05 3.71794e-05 0
7.53471e-05 4.77524e-05 0
7.38313e-05 4.73927e-05 0
7.39102e-05 4.61526e-05 0
7.9826e-05 3.58588e-05 0
7.88607e-05 3.76287e-05 0
7.81733e-05 3.57987e-05 0
8.16783e-05 3.84471e-05 0
8.07975e-05 4.04095e-05 0
7.52138e-05 4.04775e-05 0
7.67682e-05 4.17043e-05 0
7.49617e-05 4.21803e-05 0
7.52903e-05 3.84008e-05 0
7.38293e-05 3.93136e-05 0
[...]
CELL_DATA 58684
VECTORS velocity DOUBLE
73.8621 0.319518 0
80.0552 0.000208799 0
80.0357 0.000385353 0
80.0484 0.0119103 0
80.0242 -0.0151033 0
80.0565 -0.00238422 0
80.0336 0.00367136 0
77.7493 0.00109051 0
77.7171 0.0198228 0
77.6245 0.000152928 0
77.6416 -0.00375472 0
77.7157 -0.193251 0
77.6619 0.035102 0
77.7267 -0.0712605 0
77.7046 0.0736865 0
77.8811 -0.113101 0
77.7799 0.121618 0
78.2593 -0.125947 0
77.7047 0.0402089 0
78.7738 -0.07817 0
77.7995 0.109459 0
78.2278 -0.304779 0
83.8325 -1.90826 0
77.8154 -0.0226181 0
77.7867 -0.0743601 0
77.8191 -0.0355306 0
77.7241 -0.110475 0
77.7176 -0.0201578 0
77.7634 -0.110373 0
77.6235 -0.00637552 0
77.8111 -0.0907983 0
77.6491 -0.00959991 0
77.8033 -0.0945857 0
77.7816 0.0871049 0
77.8982 0.751784 0
77.6847 0.020263 0
77.8279 -0.0607132 0
77.8752 0.229966 0
80.038 -0.0164538 0
80.0366 0.000400329 0
80.0482 0.00576313 0
80.048 -0.0155776 0
80.0313 0.00219168 0
80.0479 0.00368121 0
80.0552 -0.00936097 0
80.0532 -0.0153276 0
80.0516 0.00234377 0
80.0774 -0.00669696 0
80.082 -0.0160998 0
80.0741 0.00752089 0
80.1103 -0.00527687 0
80.1199 -0.01722 0
80.1273 -0.014724 0
80.1354 0.00790859 0
80.1708 -0.0107939 0
80.1823 -0.0116796 0
80.1865 0.0145624 0
80.2352 -0.0116613 0
80.2495 -0.0190216 0
80.2671 -0.00980405 0
80.2843 0.00965338 0
80.3149 -0.0296632 0
80.3544 -0.0157493 0
80.4068 0.00698759 0
80.4134 -0.0251464 0
80.4261 -0.0295 0
80.4517 -0.00441629 0
80.5055 0.011718 0
80.5219 -0.0338989 0
80.5513 -0.00533919 0
80.6044 0.0170424 0
80.6296 -0.0415105 0
80.6619 -0.0218746 0
80.7118 -0.0484228 0
80.7554 0.0139428 0
80.7904 -0.0346212 0
80.8253 -0.0175232 0
80.897 0.0172095 0
80.9152 -0.0490681 0
81.0413 -0.0153035 0
80.9419 -0.0377151 0
81.0744 0.0113097 0
81.1438 -0.0343271 0
81.0835 -0.0457362 0
81.293 -0.0320851 0
81.2295 -0.0378142 0
81.1894 -0.0498019 0
81.267 -0.0756048 0
81.459 -0.0335112 0
81.5193 -0.0436987 0
81.3776 -0.0429934 0
81.4705 -0.0786636 0
81.6311 -0.0592116 0
81.5983 -0.0534251 0
81.6276 -0.0779306 0
81.8441 -0.0492343 0
81.7913 -0.0745423 0
81.7854 -0.0835541 0
81.9209 -0.0979779 0
82.0318 -0.0734109 0
82.2178 -0.0866067 0
82.007 -0.0581322 0
82.2933 -0.0323608 0
82.1969 -0.0871843 0
82.3592 -0.0723507 0
82.2869 -0.0912898 0
82.5051 -0.0405841 0
82.378 -0.0957495 0
82.481 -0.109326 0
82.7869 -0.0484904 0
82.7235 -0.0529451 0
82.5882 -0.0894458 0
82.7842 -0.110784 0
82.9272 -0.0449058 0
83.0205 -0.0896763 0
83.005 -0.0561086 0
83.3937 0.0146236 0
83.0465 -0.0997973 0
83.1531 -0.124025 0
83.3993 -0.105765 0
83.6289 -0.0730987 0
83.3979 -0.0751898 0
83.4432 -0.131709 0
83.8218 -0.0796925 0
83.6642 -0.142261 0
83.7058 -0.0338515 0
83.756 -0.121197 0
84.078 -0.0305461 0
83.8336 -0.16043 0
83.9862 -0.211221 0
84.3845 -0.124012 0
84.2116 -0.162474 0
84.2471 -0.0699595 0
84.4027 -0.249439 0
84.344 -0.0510182 0
84.2552 -0.241054 0
84.6063 -0.304328 0
84.8057 -0.220535 0
84.8983 -0.301187 0
84.6415 -0.25561 0
84.7241 -0.289407 0
84.8571 -0.153106 0
84.912 -0.370078 0
84.9749 -0.427491 0
85.2902 -0.330443 0
85.0564 -0.22529 0
85.0278 -0.370945 0
85.1147 -0.458483 0
85.2552 -0.0966215 0
85.3582 -0.544451 0
85.3499 -0.632311 0
85.657 -0.435977 0
85.4853 -0.342795 0
85.4514 -0.561398 0
85.51 -0.661463 0
85.6124 -0.126657 0
85.5173 -0.774097 0
85.6628 -0.879188 0
85.8654 -0.656877 0
85.7597 -0.744455 0
85.9646 -0.727216 0
85.7749 -0.966789 0
86.0123 -0.289602 0
85.7858 -0.93751 0
85.9618 -0.996383 0
86.1279 -0.337237 0
86.1039 -1.19455 0
86.1854 -1.10916 0
86.1957 -0.756029 0
86.3581 -0.554768 0
86.0677 -1.24539 0
86.1395 -1.34908 0
86.3222 -0.288422 0
86.2474 -1.41202 0
86.3717 -1.41563 0
86.2534 -1.05207 0
86.4404 -0.669027 0
86.4849 -0.832981 0
86.3851 -1.60086 0
86.5239 -0.53903 0
86.5037 -1.49892 0
86.5262 -1.47538 0
86.5551 -1.68934 0
86.5409 -0.0461993 0
86.7318 -1.62187 0
86.5273 -1.3131 0
86.6976 -1.12659 0
86.7842 -1.25273 0
86.7941 -1.76499 0
86.879 -1.73091 0
86.6978 -0.407919 0
86.9157 -1.63823 0
86.9598 -1.86168 0
86.9937 -1.76488 0
87.0385 -0.371862 0
86.9342 -1.4 0
87.2531 -1.90918 0
87.2744 -1.34813 0
87.1161 -1.1644 0
87.3157 -1.88231 0
87.3248 -1.93123 0
87.069 -0.346309 0
87.4736 -1.9788 0
87.5505 -1.83914 0
87.755 -0.313182 0
87.699 -1.8573 0
87.4198 -1.44009 0
87.8143 -1.11231 0
87.9356 -1.36629 0
87.7797 -1.63383 0
87.8808 -1.93584 0
87.8515 -0.62727 0
88.1847 -1.70095 0
88.1202 -2.00228 0
88.4692 -1.84733 0
88.2467 -0.0330055 0
88.2977 -1.50288 0
88.4791 -1.84832 0
88.0471 -0.46541 0
88.6112 -1.89181 0
88.6595 -1.03618 0
88.6963 -1.95919 0
88.9223 -0.521422 0
88.981 -1.52905 0
88.9392 -1.80553 0
88.6768 -0.268642 0
89.2048 -1.78868 0
89.4748 -1.58728 0
89.1325 -1.41954 0
89.1687 -0.822865 0
89.5585 -1.76947 0
89.4013 -0.657828 0
89.639 -0.108955 0
89.4113 -1.40176 0
89.7421 -1.67159 0
89.8631 -1.76941 0
89.723 -0.522419 0
90.0031 -1.43521 0
90.2355 -1.51398 0
89.8438 -0.172945 0
90.3814 -1.40117 0
90.3198 -1.59333 0
90.0461 -1.19512 0
90.062 -0.570187 0
90.205 -0.651475 0
90.4757 -1.52412 0
90.2389 -0.0191451 0
90.5744 -1.5781 0
90.6852 -1.49137 0
90.6499 -1.55863 0
90.4503 -0.378483 0
90.6714 -1.25709 0
90.87 -1.29607 0
90.3706 -0.0204696 0
90.9495 -1.48434 0
91.0054 -1.31552 0
90.7534 -0.969453 0
90.5556 -0.440277 0
91.03 -1.45338 0
90.6766 -0.555107 0
90.317 -0.0579029 0
90.9102 -1.07101 0
91.1558 -1.40054 0
91.232 -1.36187 0
90.4743 -0.242249 0
91.1184 -1.06736 0
91.2588 -1.29821 0
90.1862 -0.0791592 0
91.307 -1.33169 0
91.4011 -1.24663 0
91.0873 -0.720871 0
89.6755 -0.0264421 0
91.453 -1.09488 0
90.6364 -0.259796 0
90.7834 -0.233006 0
91.3297 -0.921703 0
91.1323 -0.628776 0
91.6287 -0.789479 0
89.6387 0.0733861 0
91.6288 -0.882158 0
91.1442 -0.2734 0
91.6964 -0.313638 0
89.6475 -0.0085534 0
91.5705 0.384755 0
91.3277 0.640744 0
87.6816 0.139919 0
91.79 0.0595354 0
91.6488 0.54288 0
89.1564 0.915033 0
89.0549 0.375679 0
90.6362 0.428684 0
91.5013 1.09595 0
87.9695 0.221742 0
90.9155 2.0232 0
91.6368 1.32505 0
91.6504 1.56691 0
87.0223 1.07166 0
89.8661 2.17426 0
90.9445 2.39454 0
86.9918 0.155191 0
90.7332 2.93132 0
90.3802 2.82486 0
89.347 4.51229 0
84.6943 0.337534 0
90.532 4.17103 0
88.4438 2.84869 0
86.4355 1.24092 0
86.0963 2.50666 0
90.2843 4.70763 0
89.1276 5.17984 0
85.1198 0.511514 0
89.208 6.03223 0
80.0155 0.0141941 0
80.0109 -0.000114439 0
80.0201 -0.00645953 0
80.0181 0.0159831 0
80.0013 -0.00237987 0
80.0172 -0.00369131 0
80.0234 0.0106607 0
80.0196 0.0174915 0
80.0193 -0.0026519 0
80.0425 0.0049206 0
80.0478 0.0129525 0
80.0387 -0.00756157 0
80.0728 0.00475738 0
80.082 0.0156031 0
80.0888 0.0139323 0
80.0957 -0.00801469 0
80.1302 0.00954069 0
80.141 0.0122755 0
80.1443 -0.0146989 0
80.1915 0.00889543 0
80.2056 0.0168411 0
80.2568 0.0224727 0
80.2227 0.00797688 0
80.2884 0.00462228 0
80.3354 0.0104389 0
80.3067 0.014345 0
80.3772 0.0254886 0
80.4016 0.00186339 0
80.4532 0.0243834 0
80.4037 0.0227135 0
80.4974 0.00459999 0
80.5564 0.0308378 0
80.5144 0.0215334 0
80.6548 0.041985 0
80.6708 0.0445115 0
80.7051 0.018539 0
80.6256 0.0196089 0
80.7315 0.030919 0
80.8184 0.0110184 0
80.7644 0.0158475 0
80.9193 0.0534443 0
80.937 0.0265949 0
80.9775 0.0114155 0
80.9094 0.0285938 0
81.0193 0.0405711 0
81.1256 0.0442279 0
81.222 0.0295263 0
81.1326 0.0515457 0
81.2406 0.0393391 0
81.2736 0.0613855 0
81.4353 0.0037478 0
81.3871 0.0298215 0
81.4499 0.0393371 0
81.5299 0.0773182 0
81.6362 0.0181367 0
81.6107 0.0324255 0
81.6795 0.0826467 0
81.8681 0.0490412 0
81.7098 0.0679597 0
81.8455 0.0910586 0
81.8753 0.0853734 0
82.0091 0.0419575 0
82.0897 0.0270118 0
82.1385 0.0812642 0
81.768 0.0356108 0
82.2122 0.0881046 0
82.4056 0.107232 0
82.3338 0.0925542 0
82.2786 0.0457381 0
82.5097 0.110802 0
82.5634 0.0828718 0
82.8508 0.0468351 0
82.5137 0.0896922 0
82.7638 0.0879257 0
82.8719 0.11065 0
82.6383 0.0279001 0
82.8653 0.0766522 0
83.0827 0.124014 0
82.9419 0.0592047 0
83.1597 0.0905579 0
83.3743 0.14717 0
83.3017 0.103584 0
83.5318 0.0318601 0
83.4719 0.1286 0
83.5437 0.142003 0
83.6758 0.046082 0
83.6983 0.182061 0
83.6115 0.123024 0
83.8863 0.142134 0
83.7262 0.0799897 0
83.9073 0.221386 0
84.2349 0.292564 0
84.2882 0.0543871 0
84.1484 0.187655 0
84.3581 0.326078 0
84.3713 0.222505 0
84.1854 0.0741025 0
84.4544 0.306106 0
84.5877 0.356827 0
84.6882 0.0821912 0
84.8327 0.16062 0
84.7923 0.333212 0
84.7897 0.44268 0
84.7027 0.22176 0
84.9238 0.454859 0
85.0156 0.516047 0
85.3203 0.18924 0
85.1024 0.308567 0
85.2138 0.620774 0
85.2701 0.539025 0
85.132 0.168482 0
85.3245 0.631922 0
85.4309 0.711331 0
85.6185 0.303705 0
85.4254 0.581156 0
85.5972 0.873003 0
85.6546 0.692559 0
85.4982 0.197938 0
85.664 0.858679 0
85.8342 1.07872 0
85.8364 0.302511 0
85.8405 0.917313 0
85.9749 0.441605 0
85.9643 0.951631 0
85.9367 0.523672 0
85.9591 1.186 0
86.0594 1.25808 0
86.1169 0.343258 0
86.0762 1.20619 0
86.2006 1.40923 0
86.2546 0.395211 0
86.0742 1.00583 0
86.2075 1.21122 0
86.2616 1.44222 0
86.2882 0.208068 0
86.2987 1.32284 0
86.4562 1.64531 0
86.4102 1.39418 0
86.3937 0.441015 0
86.5439 1.39432 0
86.3607 0.566062 0
86.3399 1.23792 0
86.5263 1.56813 0
86.6981 1.70998 0
86.6821 1.74074 0
86.3966 0.060415 0
86.856 1.88194 0
86.8552 1.83103 0
86.8664 1.54058 0
86.7441 0.793458 0
86.8975 0.825768 0
86.9123 1.7503 0
86.6145 0.515753 0
87.107 1.8749 0
87.0754 1.81107 0
87.0629 1.59294 0
86.8614 0.468054 0
87.2015 1.71513 0
87.4493 2.00604 0
87.0954 0.7695 0
87.0378 0.882082 0
87.3003 1.60178 0
87.6574 1.94614 0
86.9366 0.575249 0
87.7232 2.01825 0
87.787 1.9102 0
87.3251 0.392652 0
88.037 1.98447 0
88.1034 1.90437 0
88.1583 1.52405 0
87.6941 0.732921 0
87.6507 0.877035 0
88.0349 1.7862 0
87.487 0.610369 0
88.3594 1.97786 0
88.4612 1.82157 0
88.4033 1.60399 0
87.8378 0.273505 0
88.7786 1.79203 0
88.8037 1.78153 0
88.413 1.07456 0
88.8953 1.34791 0
88.4198 0.851602 0
88.8801 1.65627 0
88.2156 0.586724 0
89.1782 1.79148 0
89.2293 1.7065 0
88.2609 0.424205 0
89.2855 1.50443 0
89.6267 1.63471 0
89.4647 1.63731 0
89.154 0.395961 0
89.9334 1.61634 0
89.9915 1.68464 0
89.1406 1.19458 0
89.7538 1.23896 0
89.1877 0.713439 0
90.2313 1.68517 0
89.4619 0.201436 0
90.3019 1.5977 0
90.2684 1.48559 0
89.166 0.164619 0
90.155 1.34374 0
90.6097 1.52136 0
90.6844 1.51763 0
90.0087 0.419274 0
90.7353 1.47291 0
90.7652 1.54124 0
90.0341 1.04781 0
90.7099 1.07123 0
90.1906 0.39689 0
90.8854 1.53042 0
90.2221 0.154023 0
90.9697 1.45387 0
91.019 1.45035 0
90.0366 0.0953594 0
90.8501 1.21852 0
91.1597 1.42565 0
91.239 1.38747 0
90.4336 0.302834 0
91.1268 1.30303 0
91.2848 1.38216 0
90.9003 1.09116 0
91.0674 0.887345 0
90.4529 0.23272 0
91.1346 1.24593 0
90.3914 0.105579 0
91.4139 1.33757 0
91.4473 1.21894 0
90.3802 0.058262 0
91.1861 0.87814 0
91.5055 1.01704 0
91.6087 0.910744 0
90.0333 0.0406549 0
91.6436 0.754699 0
91.6743 0.63149 0
90.0196 0.0724721 0
91.6591 0.608681 0
90.861 0.035429 0
90.5228 0.265181 0
90.4376 0.243494 0
91.723 0.344983 0
91.4572 -0.0795824 0
91.8499 -0.221824 0
89.9219 0.0303536 0
91.0877 -0.553328 0
91.7776 -0.968899 0
89.6863 0.00671214 0
90.9383 -0.532616 0
91.7115 -1.53031 0
90.2573 -1.04097 0
89.4243 -0.302294 0
91.4838 -1.88862 0
91.3233 -2.1968 0
90.398 -0.464054 0
89.54 -2.43974 0
87.3481 -2.0628 0
90.9671 -2.25158 0
87.9082 -0.225597 0
90.9064 -3.22208 0
88.2732 6.66681 0
89.0105 5.85254 0
83.6547 1.71731 0
88.1741 6.63206 0
85.9516 6.08502 0
87.5141 7.28109 0
84.128 0.652612 0
86.5491 7.51885 0
85.4049 7.42734 0
83.0707 0.863138 0
85.4699 7.94779 0
90.8091 -3.65701 0
88.2188 -0.146067 0
90.5294 -4.01439 0
89.2339 -4.4535 0
88.6449 -3.74407 0
87.0946 -0.18879 0
89.4991 -5.04906 0
84.2307 7.27786 0
88.855 -6.37958 0
86.8195 -1.06656 0
88.5234 -6.14567 0
87.6572 -7.13955 0
82.1021 2.14783 0
87.2293 -7.01085 0
88.3753 -3.5687 0
87.7263 -6.27401 0
85.8541 -4.57296 0
84.7364 -0.696383 0
86.7847 -6.41986 0
86.0171 -6.87514 0
83.6215 7.71274 0
86.0808 -6.86894 0
85.5097 -0.358474 0
85.0869 -7.27364 0
84.5751 -7.98301 0
84.1289 -0.478837 0
83.525 -8.15577 0
84.0437 -5.89342 0
82.306 -0.59598 0
82.5469 -8.33045 0
82.7221 -4.51044 0
84.2275 -3.45423 0
83.115 -7.08458 0
82.0615 -7.43501 0
84.5531 3.97209 0
81.375 0.470273 0
83.945 2.63696 0
82.7494 -0.0721583 0
81.4967 -8.08891 0
83.2717 7.30039 0
81.1538 0.334167 0
82.7623 6.18434 0
80.6789 -7.94068 0
82.3739 -1.55805 0
80.1317 -5.62684 0
82.6835 8.37134 0
80.1934 1.6427 0
82.5981 8.30621 0
80.5964 6.83182 0
80.4886 0.332982 0
81.118 7.24118 0
80.6865 -5.94415 0
82.0007 -0.422098 0
79.8668 -8.06737 0
79.9061 -7.81628 0
81.4638 7.80995 0
79.6896 7.38736 0
79.9 0.0413485 0
80.6619 7.66991 0
79.1397 4.4644 0
79.8531 1.83555 0
78.9952 -7.99483 0
80.2846 -0.897456 0
79.3228 -7.86376 0
78.563 7.82662 0
78.4374 -7.23759 0
79.554 -0.837773 0
79.115 -2.80032 0
77.2529 -6.89411 0
80.3396 -3.60562 0
77.1364 -6.64278 0
79.1204 -0.228204 0
76.2662 -6.32595 0
78.7417 2.33619 0
79.3702 0.360556 0
78.2253 6.44363 0
78.7896 0.0875866 0
77.9516 7.69674 0
77.7336 7.15372 0
78.465 0.156707 0
77.0875 6.15601 0
78.2041 0.0981848 0
77.6853 -5.85586 0
79.1145 -0.441512 0
78.8755 5.48046 0
77.9063 0.241146 0
76.6638 5.73206 0
76.1807 -6.28521 0
79.2176 -0.176752 0
74.6388 -5.357 0
77.8797 -0.0450647 0
75.4864 -5.2292 0
78.1723 2.18632 0
77.8456 0.0042416 0
78.4678 -4.59728 0
77.8289 0.0746175 0
74.8257 -4.94151 0
76.1576 5.12224 0
76.3801 -3.75543 0
77.8106 0.0972723 0
75.2444 -4.16225 0
77.5483 2.71857 0
75.6092 1.7887 0
75.7554 4.39129 0
77.827 -0.684549 0
75.0076 -4.6676 0
77.8697 0.0684625 0
75.4908 6.12072 0
77.5166 -2.15671 0
77.8459 0.0141546 0
74.7555 -4.21117 0
75.2801 5.42351 0
77.9069 0.264863 0
75.4255 4.15986 0
75.0994 4.10167 0
77.8672 0.104371 0
74.3704 3.69918 0
73.8644 -3.77024 0
77.8723 -0.0647194 0
73.565 -3.79739 0
76.4832 -1.78459 0
77.8605 -0.0666723 0
73.026 -2.58706 0
74.3324 4.63874 0
77.9155 0.2629 0
75.9096 2.89672 0
73.7036 -2.33439 0
77.8809 -0.115674 0
73.0134 -2.13351 0
73.2886 3.39697 0
77.8814 0.100242 0
73.7357 3.20165 0
74.1068 2.57177 0
77.8515 0.022801 0
73.1891 2.79001 0
74.6204 -1.37448 0
77.9125 -0.238967 0
73.8066 -1.22211 0
72.4904 -0.768148 0
77.3161 -0.84017 0
72.5526 -0.67163 0
76.9357 0.871266 0
77.8562 0.0350367 0
75.5707 2.14967 0
72.9949 2.24762 0
77.8819 0.0332097 0
72.592 1.40763 0
77.7516 -0.173641 0
77.8516 -0.0598977 0
72.555 -0.220338 0
73.1467 -0.0886593 0
77.8716 -0.0325797 0
75.7627 0.246757 0
73.3227 0.450612 0
77.858 -0.0389217 0
76.4182 -5.09954 0
77.7929 0.0119335 0
77.8409 -0.0271193 0
77.0588 6.31484 0
77.8872 -7.23516 0
81.0579 -0.809582 0
79.7532 0.790129 0
80.4103 8.16948 0
77.8777 0.0947229 0
73.7821 4.4406 0
73.4139 -2.59358 0
77.8448 -0.0270978 0
77.829 -0.0771136 0
77.0492 -3.17732 0
77.845 0.319303 0
77.8527 0.0271368 0
77.8684 0.00406473 0
73.1195 1.87755 0
78.7514 0.37478 0
78.0705 1.37411 0
78.2912 -1.18915 0
79.5996 -0.535306 0
84.2204 -1.09056 0
83.9869 -7.99087 0
85.8175 7.53875 0
83.793 0.407643 0
77.7383 1.48672 0
78.495 7.5036 0
77.5601 -6.5276 0
78.7061 -1.89748 0
77.0276 -1.37482 0
74.3031 -0.18294 0
75.3431 5.3235 0
77.8968 1.69211 0
77.8019 -1.59881 0
74.0982 -4.2394 0
90.2654 -4.68908 0
86.7377 -0.49777 0
86.3 0.587905 0
90.7217 3.74452 0
77.8341 -0.33178 0
77.7463 0.0688176 0
77.7507 -0.112676 0
78.395 0.640091 0
81.9341 0.659276 0
81.577 3.76857 0
80.3623 -1.65812 0
82.9196 -1.57605 0
80.5656 4.44544 0
83.1961 7.85184 0
82.067 -8.25629 0
81.4651 -1.72217 0
84.9157 1.36094 0
86.1228 4.47072 0
84.6715 -2.43795 0
85.6434 -0.021482 0
89.5436 -0.05203 0
91.7752 -0.473697 0
91.7069 -0.306262 0
88.4111 -0.00519301 0
90.3474 0.0288309 0
91.4632 1.22709 0
91.303 -1.14021 0
90.2994 -0.142824 0
78.5084 -1.2262 0
77.9356 -0.414795 0
78.0003 1.02371 0
78.6245 0.790354 0
77.9465 0.931724 0
77.8128 -0.0930341 0
77.8344 0.0870671 0
77.942 -0.763172 0
87.8927 0.642371 0
89.2377 1.26347 0
88.2834 -0.740568 0
88.6859 -0.0834807 0
75.9429 -0.915594 0
77.8699 -0.0812895 0
77.7602 -0.286922 0
77.8823 -0.103957 0
77.8568 0.0730605 0
77.859 0.524959 0
91.0433 1.40635 0
90.3465 0.242588 0
90.3837 -0.0284444 0
90.9351 -1.44742 0
80.7604 -0.0441634 0
80.0742 -2.34072 0
80.9854 1.58025 0
79.9562 0.359346 0
77.2537 3.47325 0
76.3323 6.78988 0
76.2084 -5.71398 0
77.826 -2.77305 0
78.3245 -1.80728 0
77.3863 -2.06141 0
77.2466 4.02744 0
77.9207 1.98749 0
90.2381 -0.160842 0
89.769 0.0156172 0
90.1383 0.0644929 0
91.0453 0.651889 0
78.7882 -4.83978 0
79.8197 -4.75093 0
79.4973 4.08532 0
79.739 8.0809 0
78.3759 -3.36665 0
79.533 -1.85533 0
79.3374 2.57986 0
78.7162 1.26283 0
90.5527 1.62438 0
89.7924 0.225292 0
90.1102 -0.0250438 0
90.1272 -1.59701 0
77.5469 0.887244 0
77.8488 0.0153769 0
90.419 -0.14953 0
90.9192 -0.739247 0
90.7075 0.517924 0
90.3397 0.0714648 0
78.2946 -0.797938 0
78.0263 -1.09448 0
78.6068 1.46635 0
77.8113 0.412891 0
77.8105 0.0909792 0
77.8158 -0.294673 0
77.7044 -0.0382456 0
77.8218 -0.0788984 0
73.6347 1.56582 0
77.0106 1.41117 0
85.4053 -2.75716 0
88.829 -5.70784 0
89.8011 5.11243 0
85.0976 1.94687 0
76.5844 -2.07574 0
74.2476 -2.61951 0
88.7145 0.324616 0
89.3071 1.63822 0
87.4571 0.225997 0
88.7223 1.87921 0
89.3482 -1.69503 0
88.9495 -0.283397 0
88.2517 -1.86524 0
87.9808 -0.0433475 0
90.2728 -0.322465 0
90.4273 -0.889561 0
90.2289 0.572662 0
89.9587 0.0166266 0
77.8827 0.0878831 0
77.8998 0.277171 0
76.5881 0.43496 0
73.7793 0.774722 0
77.8928 -0.102479 0
77.8589 -0.0889282 0
77.7029 0.230986 0
77.5853 -0.645007 0
91.4752 -1.93529 0
88.1431 -1.24481 0
89.1959 1.56042 0
91.709 0.769808 0
77.6306 -0.00806594 0
77.6746 -0.116458 0
77.7402 -0.0583871 0
77.7691 0.143648 0
89.5263 -0.354737 0
89.584 -0.925066 0
89.5747 0.588694 0
88.9526 0.226344 0
87.2016 0.611487 0
87.5427 1.66372 0
87.5817 -2.05333 0
87.3078 -0.498523 0
77.9847 -0.666801 0
78.8124 -1.73997 0
78.3594 1.41019 0
78.0477 1.07146 0
78.554 2.3787 0
77.5289 1.7041 0
77.9001 -1.73584 0
78.2663 -2.35211 0
90.2956 -0.0583378 0
91.3445 0.961224 0
91.4888 -0.977147 0
90.682 -0.00623406 0
77.8243 -0.880096 0
77.8505 -1.10236 0
77.9204 0.720366 0
77.4867 1.17223 0
87.317 1.99683 0
86.8333 0.676981 0
86.8666 -0.4209 0
87.1487 -1.80271 0
83.7172 3.92453 0
85.6461 6.61188 0
85.1454 -7.89333 0
84.6337 -2.99103 0
74.6896 -3.08108 0
77.0659 -3.06344 0
83.3503 -2.79288 0
83.8269 -0.963883 0
82.4684 0.399003 0
85.4272 2.67066 0
74.1115 4.22366 0
76.4726 2.4619 0
88.4228 -0.115231 0
88.7887 -1.18194 0
88.5326 0.766825 0
88.3649 0.215457 0
87.2603 -0.274501 0
86.99 -1.15208 0
87.5687 1.57795 0
86.5121 0.20801 0
81.938 1.24809 0
80.5483 0.299865 0
81.4581 -0.292328 0
81.9683 -2.85186 0
90.7066 0.603579 0
90.9992 1.26644 0
91.1253 -1.34297 0
90.803 -0.465351 0
81.0789 -3.45811 0
82.0431 -1.67097 0
81.3884 2.43607 0
83.6271 5.58549 0
86.6455 1.50863 0
86.5254 0.299078 0
86.648 -0.432984 0
86.6004 -1.60078 0
87.4857 -0.579295 0
87.7676 -0.0337843 0
87.7477 0.286548 0
87.5045 1.39765 0
79.323 0.39033 0
79.0855 1.03821 0
79.3096 -0.894883 0
80.0537 -0.251981 0
80.5264 2.40545 0
79.2145 1.54686 0
78.6218 -2.33098 0
77.9688 -2.4724 0
89.5211 -0.180597 0
89.2359 -0.127481 0
88.9547 0.178849 0
90.062 0.160838 0
79.035 3.24726 0
79.6116 2.07073 0
78.743 -0.659665 0
78.5602 -0.237337 0
78.3998 0.228088 0
79.0978 0.698659 0
76.6566 -0.814728 0
77.6634 -1.16491 0
90.7861 -2.895 0
88.1689 -1.51268 0
87.6227 3.11844 0
91.1805 2.93977 0
77.8406 -0.377928 0
77.8476 0.00736402 0
77.8476 0.0278319 0
77.8972 0.348882 0
77.6914 0.035725 0
77.794 0.371455 0
77.8565 -0.21714 0
77.9582 -0.0365821 0
75.2468 -0.237762 0
72.5757 0.130815 0
83.6674 2.90823 0
87.5396 2.3923 0
86.1887 -2.08202 0
86.9024 -4.37753 0
77.496 1.8963 0
77.3218 1.05334 0
77.8525 -0.019696 0
77.8732 -0.0159184 0
79.2854 6.33217 0
77.6715 3.45315 0
79.174 -3.69137 0
77.9294 -7.60877 0
77.662 0.641315 0
77.8993 0.152395 0
90.2777 0.751497 0
90.7005 1.54933 0
90.4391 -1.47484 0
90.261 -0.308986 0
86.8433 -0.47716 0
87.1493 -0.283594 0
87.1636 0.251852 0
87.0801 1.57867 0
91.6512 -0.354185 0
90.3229 0.68896 0
90.6451 0.0546242 0
91.7243 0.141722 0
77.7896 0.092595 0
76.8107 -1.61777 0
77.9633 1.14651 0
78.0361 1.70667 0
78.1479 -1.91765 0
77.8886 -0.626628 0
77.8393 0.0473591 0
77.8463 0.226447 0
80.3612 -5.26863 0
79.4011 -2.71657 0
79.3099 -1.6278 0