# vtk DataFile Version 3.0
Unstructured Grid for Triangles
ASCII
DATASET UNSTRUCTURED_GRID
POINTS 29612 DOUBLE
-2.72397e-05 1.23686e-06 0
-2.95789e-05 9.5838e-07 0
-2.77865e-05 -3.1235e-07 0
0.0002024 5e-05 0
0.000203975 4.9875e-05 0
0.000205 5e-05 0
0.000203975 -4.9875e-05 0
0.0002024 -5e-05 0
0.000205 -5e-05 0
0.00020295 4.975e-05 0
0.00020295 -4.975e-05 0
0.000201925 4.9625e-05 0
0.000201925 -4.9625e-05 0
-5.29747e-05 -4.79887e-05 0
-5.5e-05 -5e-05 0
-5.24e-05 -5e-05 0
-5.05983e-05 -4.84325e-05 0
-4.98e-05 -5e-05 0
-4.72e-05 -5e-05 0
-4.83864e-05 -4.87761e-05 0
-4.46e-05 -5e-05 0
-4.59e-05 -4.84239e-05 0
-4.29453e-05 -4.24878e-05 0
-4.47486e-05 -4.20717e-05 0
-4.41829e-05 -4.36609e-05 0
-5.12578e-05 -4.62101e-05 0
-4.93077e-05 -4.53594e-05 0
-5.0706e-05 -4.39006e-05 0
-4.19243e-05 -4.77545e-05 0
-4.40307e-05 -4.71837e-05 0
-4.3691e-05 -4.86724e-05 0
-5.16129e-05 -4.20948e-05 0
-4.95355e-05 -4.15432e-05 0
-5.11646e-05 -4.0128e-05 0
-3.94697e-05 -4.81197e-05 0
-4.06302e-05 -4.55143e-05 0
-5.37257e-05 -3.88197e-05 0
-5.31099e-05 -4.07297e-05 0
-5.23982e-05 -3.88328e-05 0
-3.70063e-05 -4.72956e-05 0
-3.68e-05 -5e-05 0
-3.5308e-05 -4.85302e-05 0
-5.072e-05 -3.7867e-05 0
-4.85506e-05 -3.83975e-05 0
-4.90949e-05 -3.59622e-05 0
-3.37127e-05 -4.84331e-05 0
-3.16e-05 -5e-05 0
-3.26495e-05 -4.7415e-05 0
-5.5e-05 -3.5e-05 0
-5.31201e-05 -3.70361e-05 0
-5.28367e-05 -3.46817e-05 0
-3.63898e-05 -4.48809e-05 0
-3.83315e-05 -4.60336e-05 0
-3.26269e-06 -4.15503e-05 0
-5.99662e-06 -4.09556e-05 0
-5.46944e-06 -4.29488e-05 0
-5.29747e-05 4.79887e-05 0
-5.5e-05 5e-05 0
-5.5e-05 4.75e-05 0
-5.5e-05 4.5e-05 0
-5.34834e-05 4.29171e-05 0
-5.26943e-05 4.42611e-05 0
-5.34026e-05 4.60176e-05 0
-5.31099e-05 4.07297e-05 0
-5.11672e-05 4.01178e-05 0
-5.16129e-05 4.20948e-05 0
-5.24e-05 5e-05 0
-5.05983e-05 4.84325e-05 0
-5.31201e-05 3.70361e-05 0
-5.072e-05 3.7867e-05 0
-5.23982e-05 3.88328e-05 0
-4.8341e-05 4.69132e-05 0
-4.83679e-05 4.87539e-05 0
-5.28367e-05 3.46817e-05 0
-5.5e-05 3.25e-05 0
-5.25657e-05 3.28474e-05 0
-4.98e-05 5e-05 0
-5.30382e-05 3.125e-05 0
-4.19243e-05 4.77545e-05 0
-4.40015e-05 4.7335e-05 0
-4.25917e-05 4.63678e-05 0
-4.35138e-05 2.62661e-05 0
-4.14982e-05 2.74462e-05 0
-4.35654e-05 2.85217e-05 0
-4.59e-05 4.84239e-05 0
-4.36852e-05 4.87027e-05 0
-4.46e-05 5e-05 0
-5.33308e-05 2.92503e-05 0
-5.5e-05 2.75e-05 0
-5.23377e-05 2.76953e-05 0
-4.25282e-05 4.46352e-05 0
-4.09368e-05 4.35728e-05 0
-4.06302e-05 4.55143e-05 0
0.0002009 4.95e-05 0
0.0001998 5e-05 0
0.000199875 4.9375e-05 0
0.00019885 4.925e-05 0
0.0001972 5e-05 0
0.000197825 4.9125e-05 0
0.0001968 4.9e-05 0
0.000195775 4.8875e-05 0
0.0001946 5e-05 0
0.00019475 4.875e-05 0
0.000193725 4.8625e-05 0
0.000192 5e-05 0
0.0001927 4.85e-05 0
0.000191675 4.8375e-05 0
0.00019065 4.825e-05 0
0.0001894 5e-05 0
0.000189625 4.8125e-05 0
0.0001886 4.8e-05 0
0.0001868 5e-05 0
0.000187575 4.7875e-05 0
0.00018655 4.775e-05 0
0.000185515 4.8575e-05 0
0.0001842 5e-05 0
0.0001845 4.75e-05 0
0.000185525 4.7625e-05 0
0.000182564 4.829e-05 0
0.0001816 5e-05 0
0.00018245 4.725e-05 0
0.000183475 4.7375e-05 0
0.000181425 4.7125e-05 0
0.000180295 4.82657e-05 0
0.000179 5e-05 0
0.000179375 4.6875e-05 0
0.0001804 4.7e-05 0
0.000178168 4.80619e-05 0
0.0001764 5e-05 0
0.000177325 4.6625e-05 0
0.00017835 4.675e-05 0
0.000176428 4.76631e-05 0
0.0001763 4.65e-05 0
0.0001738 5e-05 0
0.0001751 4.84164e-05 0
0.000175275 4.6375e-05 0
0.000174025 4.75632e-05 0
0.0001712 5e-05 0
0.000172615 4.78449e-05 0
0.0001722 4.6e-05 0
0.000173225 4.6125e-05 0
0.00017015 4.575e-05 0
0.000171243 4.7381e-05 0
0.000169554 4.79999e-05 0
0.0001686 5e-05 0
0.000167507 4.79751e-05 0
0.000168498 4.64861e-05 0
0.000166 5e-05 0
0.00016558 4.71459e-05 0
0.000167135 4.62887e-05 0
0.0001681 4.55e-05 0
0.00016605 4.525e-05 0
0.000167075 4.5375e-05 0
0.000164059 4.61599e-05 0
0.00016394 4.79552e-05 0
0.000162881 4.6615e-05 0
0.000162975 4.4875e-05 0
0.000165025 4.5125e-05 0
0.000164 4.5e-05 0
0.000161754 4.58641e-05 0
0.000161722 4.78101e-05 0
0.000159956 4.58294e-05 0
0.000160925 4.4625e-05 0
0.00016195 4.475e-05 0
0.000157667 4.60322e-05 0
0.000158875 4.4375e-05 0
0.000159194 4.80155e-05 0
0.0001599 4.45e-05 0
0.00015785 4.425e-05 0
0.000155808 4.56757e-05 0
0.000155647 4.76701e-05 0
0.000154059 4.66642e-05 0
0.000153756 4.50083e-05 0
0.000154839 4.50446e-05 0
0.000156825 4.4125e-05 0
0.000151954 4.80508e-05 0
0.000154052 4.8477e-05 0
0.000153 5e-05 0
0.000154775 4.3875e-05 0
0.000152142 4.56625e-05 0
0.000152821 4.45753e-05 0
0.00015375 4.375e-05 0
0.0001504 5e-05 0
0.000149644 4.85168e-05 0
0.000151787 4.43178e-05 0
0.000152725 4.3625e-05 0
0.000150675 4.3375e-05 0
0.0001517 4.35e-05 0
0.000148119 4.50887e-05 0
0.000148072 4.75757e-05 0
0.000146584 4.63516e-05 0
0.000150008 4.6396e-05 0
0.000149351 4.4543e-05 0
0.00015061 4.46252e-05 0
0.0001476 4.3e-05 0
0.000148625 4.3125e-05 0
0.000146492 4.82975e-05 0
0.000144888 4.73562e-05 0
0.000146676 4.44259e-05 0
0.000145255 4.53656e-05 0
0.000145652 4.38669e-05 0
0.000141401 4.79821e-05 0
0.0001426 5e-05 0
0.00014 5e-05 0
0.000144374 4.38862e-05 0
0.00014555 4.275e-05 0
0.0001435 4.25e-05 0
0.000144525 4.2625e-05 0
0.000142746 4.38121e-05 0
0.000141288 4.43191e-05 0
0.000141707 4.32778e-05 0
0.00013921 4.38992e-05 0
0.000140355 4.5932e-05 0
0.000138302 4.5922e-05 0
0.000142912 4.58869e-05 0
0.000140592 4.30037e-05 0
0.00014145 4.225e-05 0
0.000136458 4.5869e-05 0
0.000137106 4.4063e-05 0
0.0001394 4.2e-05 0
0.000138259 4.28915e-05 0
0.000137484 4.77094e-05 0
0.000139166 4.78902e-05 0
0.00013586 4.78984e-05 0
0.000133449 4.78649e-05 0
0.000134717 4.61848e-05 0
0.000137256 4.25134e-05 0
0.000135323 4.24541e-05 0
0.000136325 4.1625e-05 0
0.000136122 4.2876e-05 0
0.000131206 4.47284e-05 0
0.000133168 4.56738e-05 0
0.000131773 4.65243e-05 0
0.000134756 4.40343e-05 0
0.000132747 4.36463e-05 0
0.000133483 4.26786e-05 0
0.000131081 4.1867e-05 0
0.000132382 4.22815e-05 0
0.000131507 4.3122e-05 0
0.000131059 4.80123e-05 0
0.00013325 4.125e-05 0
0.00012915 4.075e-05 0
0.00012982 4.18199e-05 0
0.000128915 4.26216e-05 0
0.000126366 4.47574e-05 0
0.000127331 4.30908e-05 0
0.000128781 4.44872e-05 0
0.000125336 4.28376e-05 0
0.000130218 4.31077e-05 0
0.000127894 4.16344e-05 0
0.000124774 4.69608e-05 0
0.000127668 4.64148e-05 0
0.000126591 4.8331e-05 0
0.000126722 4.18415e-05 0
0.000125768 4.11931e-05 0
0.000124326 4.13546e-05 0
0.00012505 4.025e-05 0
0.000122408 4.50118e-05 0
0.000120276 4.47432e-05 0
0.00012139 4.32235e-05 0
0.000124336 4.44132e-05 0
0.000123056 4.27595e-05 0
0.000122977 4.09049e-05 0
0.00012185 4.69217e-05 0
0.000122676 4.85947e-05 0
0.000120525 4.86094e-05 0
0.000121479 4.13153e-05 0
0.000119547 4.24221e-05 0
0.000120249 4.07448e-05 0
0.000119925 3.9625e-05 0
0.000119346 4.06114e-05 0
0.000117479 4.47279e-05 0
0.000114726 4.45259e-05 0
0.00011571 4.27814e-05 0
0.000119443 4.66611e-05 0
0.000117447 4.21596e-05 0
0.000118421 4.0752e-05 0
0.000117409 4.04437e-05 0
0.000116775 4.70073e-05 0
0.0001179 4.855e-05 0
0.000115473 4.84802e-05 0
0.00011685 3.925e-05 0
0.000117875 3.9375e-05 0
0.000115454 4.00551e-05 0
0.0001148 3.9e-05 0
0.000115825 3.9125e-05 0
0.000111704 4.23398e-05 0
0.000113786 4.26731e-05 0
0.000112589 4.43871e-05 0
0.000113234 4.06671e-05 0
0.000114754 4.13371e-05 0
0.0001106 4.42326e-05 0
0.000109703 4.24261e-05 0
0.00011275 3.875e-05 0
0.000113775 3.8875e-05 0
0.000110211 4.80875e-05 0
0.000108244 4.71951e-05 0
0.000109312 4.58413e-05 0
0.000111755 3.99116e-05 0
0.00010944 3.92972e-05 0
0.000110415 4.05876e-05 0
0.000108839 4.07536e-05 0
0.000106472 4.76905e-05 0
0.000107274 4.57868e-05 0
0.000108011 3.92415e-05 0
0.000106885 4.04365e-05 0
0.000106625 3.88708e-05 0
0.000105286 4.19254e-05 0
0.000105055 3.95469e-05 0
0.000104215 4.39764e-05 0
0.000106346 4.40629e-05 0
0.000100945 4.51249e-05 0
0.000102825 4.5614e-05 0
0.000101189 4.68452e-05 0
0.000107625 3.8125e-05 0
0.000105575 3.7875e-05 0
0.0001066 3.8e-05 0
0.000103352 4.76905e-05 0
0.000101803 4.8465e-05 0
0.000103685 3.89398e-05 0
0.00010245 3.8825e-05 0
0.000103525 3.7625e-05 0
0.000101092 3.99779e-05 0
0.000101267 3.82619e-05 0
0.000101382 4.2025e-05 0
0.000103187 4.05286e-05 0
0.000103359 4.24605e-05 0
9.87383e-05 4.5447e-05 0
9.99411e-05 4.35161e-05 0
9.744e-05 4.33145e-05 0
0.00010045 3.725e-05 0
0.000101475 3.7375e-05 0
9.70845e-05 4.65215e-05 0
9.52614e-05 4.67664e-05 0
9.61768e-05 4.49944e-05 0
9.9729e-05 3.87704e-05 0
9.78901e-05 3.9598e-05 0
9.85823e-05 3.81492e-05 0
9.62289e-05 3.93709e-05 0
9.74259e-05 3.81279e-05 0
9.7375e-05 3.6875e-05 0
9.63045e-05 3.76631e-05 0
9.58e-05 5e-05 0
9.32e-05 5e-05 0
9.47542e-05 4.8457e-05 0
9.49675e-05 3.85246e-05 0
9.36214e-05 3.89472e-05 0
9.40006e-05 3.74906e-05 0
9.66411e-05 4.12573e-05 0
9.44241e-05 4.07079e-05 0
9.03569e-05 4.24993e-05 0
9.21701e-05 4.02409e-05 0
9.27439e-05 4.27744e-05 0
8.89795e-05 4.09067e-05 0
9.03071e-05 4.0248e-05 0
9.25447e-05 3.77721e-05 0
9.3275e-05 3.6375e-05 0
9.07708e-05 3.87127e-05 0
9.11303e-05 3.70839e-05 0
9.11933e-05 4.55145e-05 0
9.30678e-05 4.73279e-05 0
9.11886e-05 4.82603e-05 0
8.87724e-05 3.88076e-05 0
8.99595e-05 3.75116e-05 0
9.02e-05 3.6e-05 0
8.89241e-05 3.6954e-05 0
8.36977e-05 4.59472e-05 0
8.36223e-05 4.83578e-05 0
8.20467e-05 4.74142e-05 0
8.71227e-05 4.03557e-05 0
8.61e-05 3.55e-05 0
8.68368e-05 3.65714e-05 0
8.5484e-05 3.6588e-05 0
8.47735e-05 4.02845e-05 0
8.23121e-05 4.21599e-05 0
8.26582e-05 3.98147e-05 0
8.46943e-05 4.2454e-05 0
8.38832e-05 3.78613e-05 0
8.35569e-05 3.63808e-05 0
8.44098e-05 3.6291e-05 0
8.5075e-05 3.5375e-05 0
8.51465e-05 4.77163e-05 0
8.3025e-05 3.5125e-05 0
8.22824e-05 3.68659e-05 0
8.1446e-05 3.57362e-05 0
8.05884e-05 3.71794e-05 0
7.53471e-05 4.77524e-05 0
7.38313e-05 4.73927e-05 0
7.39102e-05 4.61526e-05 0
7.9826e-05 3.58588e-05 0
7.88607e-05 3.76287e-05 0
7.81733e-05 3.57987e-05 0
8.16783e-05 3.84471e-05 0
8.07975e-05 4.04095e-05 0
7.52138e-05 4.04775e-05 0
7.67682e-05 4.17043e-05 0
7.49617e-05 4.21803e-05 0
7.52903e-05 3.84008e-05 0
7.38293e-05 3.93136e-05 0
[...]
CELL_DATA 58684
VECTORS velocity DOUBLE
74.1943 0.337064 0
87.8382 0.000151274 0
87.8109 -3.13185e-05 0
87.8427 -0.000565589 0
87.8144 0.000236833 0
87.8476 -0.0027917 0
87.82 0.00328171 0
77.8764 -0.00184168 0
77.8896 -0.0242302 0
77.9923 -0.00300469 0
78.1022 -0.00555378 0
78.1625 -0.408871 0
77.9216 -0.109718 0
78.2416 -0.134808 0
77.9011 -0.185025 0
78.4364 -0.170832 0
77.8768 -0.112349 0
78.7902 -0.157302 0
77.9493 -0.317505 0
79.294 -0.112181 0
77.8899 -0.115141 0
78.7607 -0.369204 0
85.306 -2.16781 0
77.8609 0.012168 0
77.8631 0.0514387 0
77.8604 0.024953 0
77.8986 0.14176 0
77.8893 0.0231493 0
77.894 0.188358 0
77.99 0.0490671 0
77.8867 0.145035 0
77.9463 0.0328908 0
77.8495 0.144184 0
78.3121 0.162945 0
78.0238 1.13261 0
78.1687 0.0682349 0
77.8987 0.178455 0
78.388 0.354542 0
87.8516 -0.00082109 0
87.8561 9.94534e-05 0
87.8637 -0.0048294 0
87.8637 -0.00336039 0
87.8713 0.000474241 0
87.879 -0.00396362 0
87.8801 -0.00711012 0
87.8812 -0.00418227 0
87.8876 -2.53632e-05 0
87.8931 -0.00677321 0
87.8923 -0.00572854 0
87.8984 2.13542e-05 0
87.906 -0.00727851 0
87.9059 -0.00911188 0
87.9065 -0.00560258 0
87.9118 -0.000572501 0
87.9165 -0.00879995 0
87.9153 -0.00745943 0
87.9205 -0.000799978 0
87.9281 -0.0110871 0
87.9273 -0.0116697 0
87.9283 -0.00634717 0
87.9351 -0.000348053 0
87.9373 -0.0155202 0
87.9404 -0.00984763 0
87.9483 -0.00162416 0
87.95 -0.0175704 0
87.9493 -0.0157999 0
87.955 -0.0120119 0
87.9588 -0.00135675 0
87.9587 -0.0183806 0
87.9645 -0.0130009 0
87.9681 -0.00137082 0
87.9697 -0.0206533 0
87.9743 -0.0158881 0
87.9794 -0.0243254 0
87.9812 -0.00108096 0
87.9845 -0.0183012 0
87.9868 -0.0113918 0
87.9922 -0.00223795 0
87.9952 -0.0263348 0
88.0064 -0.0208889 0
87.9976 -0.0215928 0
88.0056 -0.00261658 0
88.0094 -0.0134382 0
88.0074 -0.0261925 0
88.0229 -0.0171946 0
88.0208 -0.0231631 0
88.0233 -0.0308964 0
88.0298 -0.0379761 0
88.0368 -0.0241289 0
88.0486 -0.0342471 0
88.0341 -0.0298893 0
88.0448 -0.0425256 0
88.05 -0.0325363 0
88.0502 -0.0316433 0
88.0573 -0.0444542 0
88.0743 -0.0404604 0
88.0584 -0.034246 0
88.0696 -0.0471735 0
88.0804 -0.0529139 0
88.076 -0.0384594 0
88.0905 -0.0482416 0
88.0822 -0.0439707 0
88.0871 -0.0149844 0
88.0983 -0.053759 0
88.1076 -0.0503178 0
88.1043 -0.0557544 0
88.0972 -0.0132715 0
88.1137 -0.0591443 0
88.1241 -0.0661507 0
88.1189 -0.0373462 0
88.1199 -0.039555 0
88.114 -0.0534255 0
88.137 -0.0700713 0
88.1236 -0.0287808 0
88.1513 -0.063521 0
88.1365 -0.0410451 0
88.1433 -0.00425218 0
88.1594 -0.0723354 0
88.1678 -0.0834011 0
88.1828 -0.0733468 0
88.1836 -0.0565022 0
88.1536 -0.0428557 0
88.1891 -0.0837191 0
88.1951 -0.0572785 0
88.2037 -0.0879458 0
88.173 -0.0332299 0
88.2094 -0.0799384 0
88.1966 -0.0317935 0
88.2182 -0.0911551 0
88.2346 -0.104295 0
88.2348 -0.0627015 0
88.2423 -0.0891203 0
88.2093 -0.0423233 0
88.2673 -0.112748 0
88.2142 -0.0339276 0
88.2577 -0.112524 0
88.2937 -0.126501 0
88.2894 -0.0901203 0
88.2977 -0.108603 0
88.2801 -0.105103 0
88.2983 -0.11653 0
88.2515 -0.0485123 0
88.3244 -0.13315 0
88.3425 -0.147493 0
88.3417 -0.0971118 0
88.2883 -0.07361 0
88.3309 -0.126682 0
88.3455 -0.147494 0
88.2935 -0.0307813 0
88.3863 -0.159366 0
88.3975 -0.177014 0
88.4007 -0.110701 0
88.3426 -0.0936319 0
88.3975 -0.151046 0
88.4133 -0.175918 0
88.3446 -0.0333154 0
88.4287 -0.203284 0
88.4601 -0.218104 0
88.4487 -0.15311 0
88.4571 -0.178162 0
88.4775 -0.161727 0
88.4827 -0.226545 0
88.4447 -0.0610592 0
88.4864 -0.214455 0
88.5314 -0.218686 0
88.4822 -0.0703445 0
88.5758 -0.257066 0
88.588 -0.237368 0
88.5628 -0.152935 0
88.5895 -0.115529 0
88.5821 -0.264913 0
88.6097 -0.29063 0
88.5651 -0.0595553 0
88.6519 -0.294341 0
88.684 -0.300145 0
88.6167 -0.215782 0
88.648 -0.13668 0
88.6731 -0.177028 0
88.7121 -0.343267 0
88.6962 -0.115922 0
88.7504 -0.320079 0
88.7689 -0.313753 0
88.7921 -0.365651 0
88.7116 -0.00668258 0
88.8612 -0.36271 0
88.7656 -0.281622 0
88.8424 -0.253454 0
88.8934 -0.294243 0
88.9017 -0.401737 0
88.9372 -0.404175 0
88.7988 -0.0917607 0
88.9596 -0.391361 0
88.9863 -0.449959 0
88.993 -0.432445 0
89.0102 -0.0988864 0
88.9667 -0.342437 0
89.1136 -0.495883 0
89.1228 -0.371816 0
89.0573 -0.313914 0
89.1498 -0.519412 0
89.1455 -0.516284 0
89.0079 -0.0897599 0
89.2172 -0.568232 0
89.2439 -0.534657 0
89.3284 -0.106101 0
89.3141 -0.582614 0
89.189 -0.412022 0
89.3661 -0.372502 0
89.4227 -0.477693 0
89.3487 -0.527666 0
89.38 -0.631792 0
89.3731 -0.22622 0
89.5058 -0.608127 0
89.4799 -0.699144 0
89.6242 -0.709231 0
89.5304 -0.013133 0
89.5694 -0.582404 0
89.6316 -0.731863 0
89.455 -0.180259 0
89.683 -0.768999 0
89.7296 -0.44584 0
89.7227 -0.803429 0
89.8395 -0.250624 0
89.8438 -0.695107 0
89.8245 -0.815738 0
89.7212 -0.125069 0
89.9424 -0.842434 0
90.0811 -0.822548 0
89.9417 -0.698059 0
89.9639 -0.424498 0
90.114 -0.942648 0
90.0773 -0.372469 0
90.1925 -0.0638038 0
90.0524 -0.745001 0
90.2067 -0.935373 0
90.2853 -1.00288 0
90.2586 -0.317475 0
90.3943 -0.869884 0
90.5307 -0.954898 0
90.3061 -0.105792 0
90.654 -0.931814 0
90.5872 -1.03725 0
90.4486 -0.767177 0
90.4723 -0.371193 0
90.5763 -0.435359 0
90.7165 -1.04605 0
90.5876 -0.00797639 0
90.8122 -1.11616 0
90.9299 -1.06299 0
90.892 -1.11719 0
90.8074 -0.244224 0
90.9764 -0.913185 0
91.2028 -0.93181 0
90.7533 -0.00597415 0
91.2923 -1.1051 0
91.448 -0.943019 0
91.1159 -0.680179 0
90.9248 -0.280439 0
91.4487 -1.06519 0
91.0818 -0.349781 0
90.8464 -0.0165048 0
91.3665 -0.718076 0
91.6895 -0.974107 0
91.8452 -0.911632 0
91.0208 -0.0758072 0
91.7833 -0.622675 0
91.9253 -0.818359 0
90.8598 0.030797 0
92.0575 -0.80939 0
92.2353 -0.681365 0
91.855 -0.24096 0
90.5875 0.00880422 0
92.3832 -0.459285 0
91.5083 0.192431 0
91.7349 0.297692 0
92.2537 -0.304712 0
92.0287 -0.0397358 0
92.699 -0.0709422 0
90.7004 0.369587 0
92.6855 -0.174749 0
92.227 0.404782 0
92.8737 0.469618 0
90.6226 0.106817 0
92.8197 1.17803 0
92.5871 1.4117 0
89.2086 0.198511 0
93.0482 0.864356 0
92.941 1.34913 0
90.5759 1.4736 0
90.338 0.702551 0
91.8795 1.10471 0
92.8333 1.88705 0
89.4618 0.330389 0
92.3309 2.78268 0
93.0111 2.12395 0
93.0232 2.35331 0
88.6826 1.41475 0
91.3464 2.91555 0
92.3815 3.17127 0
88.6671 0.232194 0
92.1939 3.6754 0
91.8413 3.55874 0
90.8625 5.19048 0
86.3584 0.39753 0
92.0056 4.88541 0
90.0093 3.52371 0
88.1326 1.56591 0
87.7381 2.98663 0
91.768 5.39416 0
90.6261 5.84657 0
86.8 0.609082 0
90.6972 6.67375 0
87.8237 0.000988488 0
87.8282 -0.000138176 0
87.8347 0.00407743 0
87.8346 0.0031801 0
87.8416 -0.000478969 0
87.849 0.00380512 0
87.8498 0.00646624 0
87.8514 0.00341441 0
87.857 5.97687e-05 0
87.8621 0.00659417 0
87.8613 0.00493556 0
87.8671 -5.27402e-05 0
87.8742 0.00709793 0
87.8739 0.00886546 0
87.8745 0.00547257 0
87.8797 0.00054944 0
87.8843 0.00889306 0
87.8831 0.00754445 0
87.8883 0.000810898 0
87.8959 0.0108104 0
87.8952 0.0115607 0
87.9038 0.0158217 0
87.8962 0.00625137 0
87.9077 0.00909021 0
87.9169 0.0150189 0
87.9084 0.0100601 0
87.9178 0.0158241 0
87.9236 0.0121304 0
87.9287 0.0189523 0
87.9207 0.0100015 0
87.9333 0.0134448 0
87.9397 0.0213361 0
87.9321 0.0103901 0
87.9492 0.0248837 0
87.9498 0.0247067 0
87.9528 0.0178234 0
87.9443 0.012217 0
87.9542 0.01886 0
87.9641 0.0187003 0
87.9566 0.0117782 0
87.9733 0.0320576 0
87.9688 0.0127528 0
87.9775 0.0214355 0
87.9687 0.0160106 0
87.9788 0.0268033 0
87.9952 0.0313636 0
87.9946 0.01761 0
87.9892 0.0282494 0
88.0046 0.0328636 0
88.0042 0.0375919 0
88.0144 0.0196181 0
88.0093 0.0243346 0
88.0211 0.0344861 0
88.0313 0.0473598 0
88.0272 0.023407 0
88.0368 0.0374754 0
88.043 0.0494073 0
88.0396 0.0274008 0
88.031 0.0343822 0
88.0542 0.0536099 0
88.053 0.0524623 0
88.0504 0.0331555 0
88.056 0.0239288 0
88.0641 0.0479839 0
88.031 0.0135664 0
88.078 0.0558802 0
88.0981 0.0671062 0
88.0838 0.0561493 0
88.0708 0.0332478 0
88.1024 0.0673564 0
88.1058 0.0599336 0
88.0995 0.0289335 0
88.0892 0.0541171 0
88.114 0.0626221 0
88.1234 0.071098 0
88.0862 0.0166495 0
88.1106 0.0511946 0
88.1439 0.0830044 0
88.1137 0.0418 0
88.1488 0.0736675 0
88.1633 0.086577 0
88.1407 0.0631138 0
88.1415 0.0266332 0
88.1647 0.0763244 0
88.1783 0.0884115 0
88.1449 0.0210888 0
88.1908 0.0968004 0
88.16 0.070591 0
88.1962 0.0812889 0
88.1677 0.0565917 0
88.2078 0.10368 0
88.2396 0.124879 0
88.1896 0.0331785 0
88.2021 0.0846869 0
88.2554 0.131957 0
88.2284 0.0959707 0
88.1859 0.0410264 0
88.2617 0.125601 0
88.2702 0.130974 0
88.2187 0.0327051 0
88.25 0.0591042 0
88.2818 0.116407 0
88.3013 0.151801 0
88.2395 0.0795111 0
88.3168 0.148103 0
88.3278 0.158242 0
88.2996 0.0560437 0
88.3003 0.0982509 0
88.3548 0.176257 0
88.3426 0.149485 0
88.2614 0.0470378 0
88.3602 0.1689 0
88.3898 0.183103 0
88.3481 0.0729338 0
88.3662 0.154371 0
88.4308 0.215691 0
88.4102 0.165897 0
88.3116 0.0522357 0
88.4436 0.204374 0
88.4851 0.245185 0
88.3791 0.0703053 0
88.4646 0.196677 0
88.4309 0.0927371 0
88.4899 0.203678 0
88.4197 0.114972 0
88.5239 0.260466 0
88.5572 0.261522 0
88.4584 0.0706587 0
88.5462 0.253507 0
88.6012 0.292893 0
88.5279 0.0765233 0
88.5204 0.212629 0
88.5798 0.248179 0
88.631 0.296383 0
88.5136 0.0439225 0
88.631 0.2699 0
88.7095 0.347851 0
88.6799 0.290478 0
88.6059 0.0891269 0
88.7313 0.300613 0
88.5784 0.113913 0
88.629 0.256459 0
88.733 0.335092 0
88.8149 0.378568 0
88.8177 0.386399 0
88.5847 0.00946618 0
88.8937 0.437708 0
88.8988 0.426992 0
88.9005 0.372711 0
88.8302 0.185278 0
88.9088 0.201091 0
88.9231 0.418686 0
88.7229 0.114876 0
89.0169 0.472063 0
89.0028 0.460499 0
88.9986 0.41277 0
88.8868 0.118704 0
89.0631 0.459706 0
89.1693 0.568527 0
89.0151 0.212949 0
88.9841 0.229199 0
89.1172 0.457656 0
89.2615 0.589784 0
88.9191 0.143202 0
89.2933 0.621603 0
89.3187 0.605956 0
89.1236 0.11975 0
89.4294 0.687735 0
89.4547 0.661858 0
89.4906 0.568246 0
89.2898 0.253315 0
89.2746 0.28754 0
89.4312 0.637829 0
89.1944 0.18822 0
89.571 0.756834 0
89.6103 0.716255 0
89.5955 0.658412 0
89.3492 0.10168 0
89.7471 0.776935 0
89.7578 0.792671 0
89.6065 0.448688 0
89.8224 0.625352 0
89.6121 0.365395 0
89.7986 0.760908 0
89.5172 0.233095 0
89.9326 0.885554 0
89.9501 0.858397 0
89.5375 0.181834 0
89.9998 0.789352 0
90.1585 0.911799 0
90.0833 0.888366 0
89.9506 0.208603 0
90.3394 0.956229 0
90.3778 1.01824 0
89.9341 0.6191 0
90.2646 0.757103 0
89.972 0.378413 0
90.5457 1.07415 0
90.1007 0.116917 0
90.5991 1.04672 0
90.5886 0.994274 0
89.9468 0.0929778 0
90.5189 0.898962 0
90.8766 1.06772 0
90.9594 1.07813 0
90.4435 0.26968 0
91.023 1.05463 0
91.0685 1.12371 0
90.4483 0.682131 0
91.0636 0.74576 0
90.5771 0.263521 0
91.2212 1.12524 0
90.5906 0.0986993 0
91.3546 1.05385 0
91.4367 1.04021 0
90.4432 0.0681292 0
91.2597 0.859867 0
91.7064 0.975934 0
91.8612 0.914845 0
90.8205 0.174105 0
91.7019 0.856458 0
91.9911 0.868806 0
91.346 0.734711 0
91.7755 0.432627 0
90.883 0.110073 0
91.7671 0.776397 0
90.8794 0.040314 0
92.228 0.766215 0
92.3106 0.620255 0
90.7936 0.0375927 0
92.0127 0.307196 0
92.4533 0.340096 0
92.6382 0.206026 0
90.8345 -0.0971094 0
92.7255 0.00458795 0
92.7686 -0.132767 0
90.9724 -0.264875 0
92.7831 -0.162104 0
91.977 -0.624742 0
91.2685 -0.087456 0
91.0835 0.00366238 0
92.9155 -0.453586 0
92.6711 -0.855212 0
93.1013 -1.02942 0
90.7238 -0.00502576 0
92.375 -1.31059 0
93.0973 -1.76939 0
90.668 -0.122357 0
92.2085 -1.27877 0
93.0702 -2.31292 0
91.6424 -1.75136 0
90.6311 -0.655205 0
92.8752 -2.66489 0
92.7347 -2.96045 0
91.6093 -1.10255 0
91.0351 -3.13577 0
88.9923 -2.59306 0
92.3713 -3.00177 0
89.4193 -0.40385 0
92.3542 -3.9557 0
89.7662 7.27689 0
90.5018 6.50107 0
85.0836 1.92482 0
89.6607 7.23468 0
87.4161 6.6239 0
88.999 7.86845 0
85.6776 0.755729 0
88.016 8.07347 0
86.8399 7.94767 0
84.4197 0.961915 0
86.9143 8.47395 0
92.2622 -4.37796 0
89.667 -0.251544 0
91.994 -4.72455 0
90.7474 -5.1291 0
90.1936 -4.41487 0
88.7614 -0.268025 0
90.9895 -5.71889 0
85.6074 7.74336 0
90.3334 -7.00075 0
88.5063 -1.39734 0
90.0094 -6.76634 0
89.1413 -7.73424 0
83.2601 2.36531 0
88.703 -7.59093 0
89.9261 -4.22812 0
89.1963 -6.87623 0
87.329 -5.09029 0
86.3858 -0.83648 0
88.2545 -6.9856 0
87.4588 -7.39735 0
84.9818 8.17118 0
87.5309 -7.40824 0
87.2251 -0.453571 0
86.4971 -7.76331 0
85.9832 -8.46922 0
85.7003 -0.562981 0
84.8908 -8.6149 0
85.3976 -6.3219 0
83.5192 -0.65261 0
83.8761 -8.76787 0
83.9416 -4.86234 0
85.6628 -3.82688 0
84.4192 -7.50556 0
83.3075 -7.8581 0
85.9785 4.38894 0
82.3473 0.529159 0
85.3832 2.93521 0
84.0302 -0.0738076 0
82.7619 -8.5241 0
84.6047 7.73978 0
82.074 0.384423 0
84.0295 6.58552 0
81.8953 -8.38864 0
83.5988 -1.71521 0
81.1829 -6.12412 0
84.027 8.82212 0
80.9559 2.02466 0
83.9258 8.74783 0
81.6984 7.29631 0
81.2431 0.412967 0
82.3345 7.67113 0
81.7912 -6.37117 0
83.1075 -0.473878 0
81.0406 -8.5172 0
81.0582 -8.28466 0
82.7082 8.23888 0
80.7813 7.85509 0
80.5497 0.0412517 0
81.844 8.10918 0
79.9762 5.08132 0
80.5508 2.28745 0
80.1168 -8.46561 0
81.0226 -1.09802 0
80.451 -8.34068 0
79.6557 8.308 0
79.4905 -7.73464 0
80.1492 -1.07734 0
79.7788 -3.39914 0
78.2289 -7.43071 0
81.2536 -4.10772 0
78.0875 -7.18614 0
79.6433 -0.289989 0
77.1728 -6.86595 0
79.3154 2.86452 0
79.9176 0.461135 0
79.2258 6.97564 0
79.3015 0.116534 0
79.023 8.18511 0
78.7352 7.68194 0
78.9815 0.185018 0
77.972 6.72323 0
78.7586 0.13349 0
78.5564 -6.42356 0
79.6412 -0.575304 0
79.7809 6.04573 0
77.9157 0.73671 0
77.5261 6.31348 0
77.057 -6.82679 0
79.7543 -0.23049 0
75.4275 -5.83756 0
77.8926 -0.441114 0
76.2469 -5.74491 0
78.583 2.5495 0
77.8573 0.120438 0
79.2749 -5.22772 0
77.8595 -0.113039 0
75.5491 -5.40904 0
76.932 5.69655 0
76.9485 -4.26932 0
77.8797 -0.243362 0
75.8501 -4.63231 0
77.9469 3.14265 0
75.7984 1.99508 0
76.4301 4.92455 0
77.6556 -0.985465 0
75.6963 -5.13456 0
77.8248 0.402487 0
76.3552 6.64611 0
77.7133 -2.37859 0
77.8589 -0.0843911 0
75.3637 -4.6311 0
76.083 5.93792 0
77.8479 0.716869 0
76.0311 4.64071 0
75.7551 4.5806 0
77.819 0.380829 0
74.9567 4.07873 0
74.5098 -4.16025 0
77.8482 -0.295295 0
74.208 -4.15289 0
76.5755 -1.97908 0
77.8592 -0.20118 0
73.5824 -2.83027 0
75.019 5.07493 0
77.7741 0.620903 0
76.2549 3.25078 0
74.1907 -2.57117 0
77.7635 -0.311677 0
73.545 -2.34201 0
73.9035 3.73409 0
77.7738 0.265432 0
74.3032 3.51761 0
74.6018 2.86954 0
77.8576 0.0350773 0
73.769 3.05681 0
74.8839 -1.51329 0
77.7127 -0.54125 0
74.1765 -1.33367 0
73.0029 -0.849554 0
77.0602 -0.925053 0
73.0526 -0.719711 0
76.7668 0.959534 0
77.8 0.0777658 0
75.8693 2.43545 0
73.5482 2.46185 0
77.6732 0.0593248 0
73.1252 1.55466 0
77.4008 -0.236082 0
77.8442 -0.112087 0
73.0512 -0.236986 0
73.575 -0.0933015 0
77.8193 -0.0660753 0
75.7838 0.307384 0
73.7408 0.526572 0
77.8307 -0.062157 0
77.1474 -5.65929 0
77.9258 -0.432525 0
77.8473 0.132654 0
77.9871 6.8851 0
78.9314 -7.74029 0
81.981 -0.945267 0
80.3807 0.99645 0
81.6092 8.61576 0
77.8021 0.279743 0
74.4672 4.85579 0
73.9438 -2.8392 0
77.8108 -0.201276 0
77.877 -0.572766 0
77.526 -3.67141 0
77.9425 0.801201 0
77.9094 0.199775 0
77.812 -0.000646861 0
73.6189 2.05387 0
79.2602 0.466146 0
78.3624 1.57587 0
78.6857 -1.37362 0
80.1944 -0.690902 0
85.7897 -1.26741 0
85.3689 -8.45929 0
87.2671 8.07063 0
85.3211 0.468067 0
77.7283 1.66412 0
79.5721 8.00212 0
78.4962 -7.08465 0
79.2113 -2.3152 0
76.8745 -1.46006 0
74.5709 -0.222207 0
76.1185 5.83227 0
78.0467 1.89149 0
77.8855 -1.78994 0
74.7362 -4.63629 0
91.739 -5.36698 0
88.4412 -0.659383 0
88.0129 0.788354 0
92.1875 4.46042 0
77.9376 -0.814831 0
77.8819 -0.0446685 0
77.8711 0.148305 0
78.9107 0.757024 0
83.0494 0.735501 0
82.6814 4.10427 0
81.1413 -1.98953 0
84.249 -1.74489 0
81.5975 4.89741 0
84.5406 8.30373 0
83.3679 -8.68472 0
82.4874 -1.91918 0
86.5639 1.60885 0
87.6535 5.02099 0
86.2083 -2.78776 0
87.3686 -0.0417434 0
90.6091 -0.247817 0
93.0604 -1.27975 0
92.9068 0.47964 0
89.7808 0.027811 0
90.8416 0.00465975 0
92.3513 0.603526 0
92.1348 -0.582596 0
90.9623 0.0321373 0
78.9764 -1.4476 0
78.4243 -0.573631 0
78.3399 1.23708 0
79.1437 0.950548 0
78.1813 1.22593 0
77.8789 0.240663 0
77.8565 -0.10675 0
78.1076 -1.12695 0
89.4591 0.949538 0
90.7019 1.87026 0
89.7866 -1.13876 0
90.0048 -0.168895 0
75.9168 -0.959913 0
77.8381 -0.155432 0
77.4429 -0.439613 0
77.8541 -0.374718 0
77.8474 0.204995 0
77.8529 0.966949 0
91.5019 0.988945 0
90.711 0.155095 0
90.8091 -0.00602908 0
91.2593 -1.05945 0
81.6068 -0.0400289 0
80.845 -2.82649 0
81.9088 1.80489 0
80.6073 0.448088 0
77.7758 4.04702 0
77.2726 7.32095 0
77.0193 -6.26505 0
78.2434 -3.22917 0
78.7408 -2.11204 0
77.4893 -2.23121 0
77.8661 4.64035 0
78.1742 2.22552 0
90.9647 0.0440447 0
90.6781 0.141025 0
90.8762 -0.047031 0
91.8549 0.115432 0
79.6957 -5.42612 0
80.779 -5.26244 0
80.3644 4.64229 0
80.9055 8.5359 0
79.0332 -3.98253 0
80.2014 -2.31471 0
80.0349 3.11865 0
79.2048 1.53718 0
90.8203 1.12862 0
90.2916 0.141787 0
90.4836 -0.0126177 0
90.4543 -1.01025 0
77.2714 1.01437 0
77.8398 0.029627 0
90.8719 -0.0587546 0
91.5088 -0.362845 0
91.2271 0.253219 0
90.7327 0.038719 0
78.7819 -0.956565 0
78.313 -1.33245 0
79.0859 1.74312 0
78.1982 0.735488 0
77.8875 -0.146696 0
78.1202 -0.698573 0
77.9497 0.315031 0
77.8627 0.136243 0
74.0535 1.71364 0
76.909 1.52434 0
86.97 -3.15008 0
90.3254 -6.34557 0
91.2918 5.79264 0
86.6804 2.27226 0
76.7531 -2.31408 0
74.6854 -2.90124 0
89.7428 0.151595 0
89.9989 0.855362 0
89.1838 0.0740534 0
89.7207 0.811781 0
90.0194 -0.834302 0
89.8461 -0.139047 0
89.5323 -0.682923 0
89.4186 -0.0150238 0
90.6318 -0.213948 0
90.7637 -0.614339 0
90.6118 0.386479 0
90.39 0.00881204 0
77.8488 0.179176 0
77.6577 0.538789 0
76.4074 0.45223 0
74.1471 0.845732 0
77.7763 -0.249549 0
77.8339 -0.169714 0
77.3468 0.274545 0
77.2722 -0.750378 0
92.875 -2.71715 0
89.707 -1.74309 0
90.6938 2.20998 0
93.0427 1.57832 0
78.0065 -0.0634225 0
78.1023 -0.365347 0
77.8863 0.0525575 0
78.2752 0.260803 0
90.1379 -0.20238 0
90.1736 -0.521529 0
90.1789 0.348582 0
89.8501 0.113496 0
89.058 0.166926 0
89.2227 0.513608 0
89.261 -0.602313 0
89.1273 -0.146295 0
78.4361 -0.898749 0
79.3357 -2.13457 0
78.7827 1.61254 0
78.4138 1.27249 0
79.1019 2.88107 0
77.5393 1.85096 0
78.0806 -1.92315 0
78.731 -2.79366 0
91.2958 -0.525175 0
92.2693 0.323708 0
92.4389 -0.319065 0
91.7185 0.559661 0
77.6578 -1.14875 0
77.7734 -1.36519 0
77.8028 1.08225 0
77.2988 1.30621 0
89.1106 0.538362 0
88.8529 0.162666 0
88.8984 -0.101422 0
89.0649 -0.461219 0
85.0715 4.26623 0
87.0801 7.12606 0
86.5721 -8.3946 0
86.1186 -3.34348 0
75.1628 -3.42476 0
77.4909 -3.51442 0
84.694 -3.06158 0
85.3369 -1.09711 0
83.691 0.453946 0
87.016 3.10458 0
74.753 4.62492 0
76.6661 2.73263 0
89.6056 -0.0516775 0
89.7807 -0.529788 0
89.6638 0.347951 0
89.5812 0.092582 0
88.885 -0.368867 0
88.6577 -1.51171 0
89.213 2.0824 0
88.2302 0.271683 0
83.0603 1.39612 0
81.3211 0.350353 0
82.4399 -0.336314 0
83.1002 -3.10974 0
91.1931 0.325145 0
91.4827 0.860699 0
91.6368 -0.936497 0
91.492 -0.0653531 0
82.0948 -3.83054 0
83.1875 -1.83679 0
82.4061 2.71032 0
84.9577 5.98521 0
88.7923 0.335087 0
88.6719 0.0639603 0
88.8018 -0.0992377 0
88.7991 -0.349248 0
89.2112 -0.180249 0
89.3279 -0.0103348 0
89.3084 0.099996 0
89.2059 0.425704 0
79.8661 0.49716 0
79.6253 1.30354 0
79.8828 -1.14687 0
80.7205 -0.318553 0
81.387 2.82592 0
79.7832 1.949 0
79.1682 -2.83466 0
78.3436 -2.86173 0
90.6421 -0.476844 0
90.3885 -0.276383 0
90.2024 0.373021 0
91.1535 0.6163 0
79.7692 3.84579 0
80.2768 2.56952 0
79.247 -0.824141 0
79.0792 -0.293053 0
78.9222 0.265307 0
79.6306 0.888551 0
76.5281 -0.874327 0
77.5021 -1.34756 0
92.233 -3.62947 0
89.7557 -2.06108 0
89.2061 3.74437 0
92.6244 3.69103 0
77.8763 -0.865128 0
77.8814 -0.142451 0
77.8201 0.198911 0
77.9494 0.845288 0
78.2077 0.0873784 0
78.2286 0.624937 0
78.3769 -0.343674 0
78.5213 -0.0202473 0
75.3847 -0.268646 0
73.0671 0.151078 0
85.0758 3.22076 0
89.164 2.96924 0
87.8499 -2.51177 0
88.4506 -4.96883 0
77.5464 2.06603 0
77.1111 1.15165 0
77.8572 -0.0251839 0
77.6478 -0.0500985 0
80.3197 6.83325 0
78.2375 4.05679 0
79.9673 -4.2978 0
78.9833 -8.10467 0
77.3523 0.784625 0
77.7634 0.424213 0
90.6481 0.514109 0
90.9846 1.11802 0
90.7166 -1.01415 0
90.6166 -0.20171 0
88.9053 -0.118598 0
89.0576 -0.0800902 0
89.0378 0.0691037 0
88.9936 0.399934 0
92.8079 0.401459 0
91.6423 1.3645 0
91.7135 -0.5387 0
92.9364 -0.656336 0
77.4593 0.107503 0