# vtk DataFile Version 3.0
Unstructured Grid for Triangles
ASCII
DATASET UNSTRUCTURED_GRID
POINTS 29612 DOUBLE
-2.72397e-05 1.23686e-06 0
-2.95789e-05 9.5838e-07 0
-2.77865e-05 -3.1235e-07 0
0.0002024 5e-05 0
0.000203975 4.9875e-05 0
0.000205 5e-05 0
0.000203975 -4.9875e-05 0
0.0002024 -5e-05 0
0.000205 -5e-05 0
0.00020295 4.975e-05 0
0.00020295 -4.975e-05 0
0.000201925 4.9625e-05 0
0.000201925 -4.9625e-05 0
-5.29747e-05 -4.79887e-05 0
-5.5e-05 -5e-05 0
-5.24e-05 -5e-05 0
-5.05983e-05 -4.84325e-05 0
-4.98e-05 -5e-05 0
-4.72e-05 -5e-05 0
-4.83864e-05 -4.87761e-05 0
-4.46e-05 -5e-05 0
-4.59e-05 -4.84239e-05 0
-4.29453e-05 -4.24878e-05 0
-4.47486e-05 -4.20717e-05 0
-4.41829e-05 -4.36609e-05 0
-5.12578e-05 -4.62101e-05 0
-4.93077e-05 -4.53594e-05 0
-5.0706e-05 -4.39006e-05 0
-4.19243e-05 -4.77545e-05 0
-4.40307e-05 -4.71837e-05 0
-4.3691e-05 -4.86724e-05 0
-5.16129e-05 -4.20948e-05 0
-4.95355e-05 -4.15432e-05 0
-5.11646e-05 -4.0128e-05 0
-3.94697e-05 -4.81197e-05 0
-4.06302e-05 -4.55143e-05 0
-5.37257e-05 -3.88197e-05 0
-5.31099e-05 -4.07297e-05 0
-5.23982e-05 -3.88328e-05 0
-3.70063e-05 -4.72956e-05 0
-3.68e-05 -5e-05 0
-3.5308e-05 -4.85302e-05 0
-5.072e-05 -3.7867e-05 0
-4.85506e-05 -3.83975e-05 0
-4.90949e-05 -3.59622e-05 0
-3.37127e-05 -4.84331e-05 0
-3.16e-05 -5e-05 0
-3.26495e-05 -4.7415e-05 0
-5.5e-05 -3.5e-05 0
-5.31201e-05 -3.70361e-05 0
-5.28367e-05 -3.46817e-05 0
-3.63898e-05 -4.48809e-05 0
-3.83315e-05 -4.60336e-05 0
-3.26269e-06 -4.15503e-05 0
-5.99662e-06 -4.09556e-05 0
-5.46944e-06 -4.29488e-05 0
-5.29747e-05 4.79887e-05 0
-5.5e-05 5e-05 0
-5.5e-05 4.75e-05 0
-5.5e-05 4.5e-05 0
-5.34834e-05 4.29171e-05 0
-5.26943e-05 4.42611e-05 0
-5.34026e-05 4.60176e-05 0
-5.31099e-05 4.07297e-05 0
-5.11672e-05 4.01178e-05 0
-5.16129e-05 4.20948e-05 0
-5.24e-05 5e-05 0
-5.05983e-05 4.84325e-05 0
-5.31201e-05 3.70361e-05 0
-5.072e-05 3.7867e-05 0
-5.23982e-05 3.88328e-05 0
-4.8341e-05 4.69132e-05 0
-4.83679e-05 4.87539e-05 0
-5.28367e-05 3.46817e-05 0
-5.5e-05 3.25e-05 0
-5.25657e-05 3.28474e-05 0
-4.98e-05 5e-05 0
-5.30382e-05 3.125e-05 0
-4.19243e-05 4.77545e-05 0
-4.40015e-05 4.7335e-05 0
-4.25917e-05 4.63678e-05 0
-4.35138e-05 2.62661e-05 0
-4.14982e-05 2.74462e-05 0
-4.35654e-05 2.85217e-05 0
-4.59e-05 4.84239e-05 0
-4.36852e-05 4.87027e-05 0
-4.46e-05 5e-05 0
-5.33308e-05 2.92503e-05 0
-5.5e-05 2.75e-05 0
-5.23377e-05 2.76953e-05 0
-4.25282e-05 4.46352e-05 0
-4.09368e-05 4.35728e-05 0
-4.06302e-05 4.55143e-05 0
0.0002009 4.95e-05 0
0.0001998 5e-05 0
0.000199875 4.9375e-05 0
0.00019885 4.925e-05 0
0.0001972 5e-05 0
0.000197825 4.9125e-05 0
0.0001968 4.9e-05 0
0.000195775 4.8875e-05 0
0.0001946 5e-05 0
0.00019475 4.875e-05 0
0.000193725 4.8625e-05 0
0.000192 5e-05 0
0.0001927 4.85e-05 0
0.000191675 4.8375e-05 0
0.00019065 4.825e-05 0
0.0001894 5e-05 0
0.000189625 4.8125e-05 0
0.0001886 4.8e-05 0
0.0001868 5e-05 0
0.000187575 4.7875e-05 0
0.00018655 4.775e-05 0
0.000185515 4.8575e-05 0
0.0001842 5e-05 0
0.0001845 4.75e-05 0
0.000185525 4.7625e-05 0
0.000182564 4.829e-05 0
0.0001816 5e-05 0
0.00018245 4.725e-05 0
0.000183475 4.7375e-05 0
0.000181425 4.7125e-05 0
0.000180295 4.82657e-05 0
0.000179 5e-05 0
0.000179375 4.6875e-05 0
0.0001804 4.7e-05 0
0.000178168 4.80619e-05 0
0.0001764 5e-05 0
0.000177325 4.6625e-05 0
0.00017835 4.675e-05 0
0.000176428 4.76631e-05 0
0.0001763 4.65e-05 0
0.0001738 5e-05 0
0.0001751 4.84164e-05 0
0.000175275 4.6375e-05 0
0.000174025 4.75632e-05 0
0.0001712 5e-05 0
0.000172615 4.78449e-05 0
0.0001722 4.6e-05 0
0.000173225 4.6125e-05 0
0.00017015 4.575e-05 0
0.000171243 4.7381e-05 0
0.000169554 4.79999e-05 0
0.0001686 5e-05 0
0.000167507 4.79751e-05 0
0.000168498 4.64861e-05 0
0.000166 5e-05 0
0.00016558 4.71459e-05 0
0.000167135 4.62887e-05 0
0.0001681 4.55e-05 0
0.00016605 4.525e-05 0
0.000167075 4.5375e-05 0
0.000164059 4.61599e-05 0
0.00016394 4.79552e-05 0
0.000162881 4.6615e-05 0
0.000162975 4.4875e-05 0
0.000165025 4.5125e-05 0
0.000164 4.5e-05 0
0.000161754 4.58641e-05 0
0.000161722 4.78101e-05 0
0.000159956 4.58294e-05 0
0.000160925 4.4625e-05 0
0.00016195 4.475e-05 0
0.000157667 4.60322e-05 0
0.000158875 4.4375e-05 0
0.000159194 4.80155e-05 0
0.0001599 4.45e-05 0
0.00015785 4.425e-05 0
0.000155808 4.56757e-05 0
0.000155647 4.76701e-05 0
0.000154059 4.66642e-05 0
0.000153756 4.50083e-05 0
0.000154839 4.50446e-05 0
0.000156825 4.4125e-05 0
0.000151954 4.80508e-05 0
0.000154052 4.8477e-05 0
0.000153 5e-05 0
0.000154775 4.3875e-05 0
0.000152142 4.56625e-05 0
0.000152821 4.45753e-05 0
0.00015375 4.375e-05 0
0.0001504 5e-05 0
0.000149644 4.85168e-05 0
0.000151787 4.43178e-05 0
0.000152725 4.3625e-05 0
0.000150675 4.3375e-05 0
0.0001517 4.35e-05 0
0.000148119 4.50887e-05 0
0.000148072 4.75757e-05 0
0.000146584 4.63516e-05 0
0.000150008 4.6396e-05 0
0.000149351 4.4543e-05 0
0.00015061 4.46252e-05 0
0.0001476 4.3e-05 0
0.000148625 4.3125e-05 0
0.000146492 4.82975e-05 0
0.000144888 4.73562e-05 0
0.000146676 4.44259e-05 0
0.000145255 4.53656e-05 0
0.000145652 4.38669e-05 0
0.000141401 4.79821e-05 0
0.0001426 5e-05 0
0.00014 5e-05 0
0.000144374 4.38862e-05 0
0.00014555 4.275e-05 0
0.0001435 4.25e-05 0
0.000144525 4.2625e-05 0
0.000142746 4.38121e-05 0
0.000141288 4.43191e-05 0
0.000141707 4.32778e-05 0
0.00013921 4.38992e-05 0
0.000140355 4.5932e-05 0
0.000138302 4.5922e-05 0
0.000142912 4.58869e-05 0
0.000140592 4.30037e-05 0
0.00014145 4.225e-05 0
0.000136458 4.5869e-05 0
0.000137106 4.4063e-05 0
0.0001394 4.2e-05 0
0.000138259 4.28915e-05 0
0.000137484 4.77094e-05 0
0.000139166 4.78902e-05 0
0.00013586 4.78984e-05 0
0.000133449 4.78649e-05 0
0.000134717 4.61848e-05 0
0.000137256 4.25134e-05 0
0.000135323 4.24541e-05 0
0.000136325 4.1625e-05 0
0.000136122 4.2876e-05 0
0.000131206 4.47284e-05 0
0.000133168 4.56738e-05 0
0.000131773 4.65243e-05 0
0.000134756 4.40343e-05 0
0.000132747 4.36463e-05 0
0.000133483 4.26786e-05 0
0.000131081 4.1867e-05 0
0.000132382 4.22815e-05 0
0.000131507 4.3122e-05 0
0.000131059 4.80123e-05 0
0.00013325 4.125e-05 0
0.00012915 4.075e-05 0
0.00012982 4.18199e-05 0
0.000128915 4.26216e-05 0
0.000126366 4.47574e-05 0
0.000127331 4.30908e-05 0
0.000128781 4.44872e-05 0
0.000125336 4.28376e-05 0
0.000130218 4.31077e-05 0
0.000127894 4.16344e-05 0
0.000124774 4.69608e-05 0
0.000127668 4.64148e-05 0
0.000126591 4.8331e-05 0
0.000126722 4.18415e-05 0
0.000125768 4.11931e-05 0
0.000124326 4.13546e-05 0
0.00012505 4.025e-05 0
0.000122408 4.50118e-05 0
0.000120276 4.47432e-05 0
0.00012139 4.32235e-05 0
0.000124336 4.44132e-05 0
0.000123056 4.27595e-05 0
0.000122977 4.09049e-05 0
0.00012185 4.69217e-05 0
0.000122676 4.85947e-05 0
0.000120525 4.86094e-05 0
0.000121479 4.13153e-05 0
0.000119547 4.24221e-05 0
0.000120249 4.07448e-05 0
0.000119925 3.9625e-05 0
0.000119346 4.06114e-05 0
0.000117479 4.47279e-05 0
0.000114726 4.45259e-05 0
0.00011571 4.27814e-05 0
0.000119443 4.66611e-05 0
0.000117447 4.21596e-05 0
0.000118421 4.0752e-05 0
0.000117409 4.04437e-05 0
0.000116775 4.70073e-05 0
0.0001179 4.855e-05 0
0.000115473 4.84802e-05 0
0.00011685 3.925e-05 0
0.000117875 3.9375e-05 0
0.000115454 4.00551e-05 0
0.0001148 3.9e-05 0
0.000115825 3.9125e-05 0
0.000111704 4.23398e-05 0
0.000113786 4.26731e-05 0
0.000112589 4.43871e-05 0
0.000113234 4.06671e-05 0
0.000114754 4.13371e-05 0
0.0001106 4.42326e-05 0
0.000109703 4.24261e-05 0
0.00011275 3.875e-05 0
0.000113775 3.8875e-05 0
0.000110211 4.80875e-05 0
0.000108244 4.71951e-05 0
0.000109312 4.58413e-05 0
0.000111755 3.99116e-05 0
0.00010944 3.92972e-05 0
0.000110415 4.05876e-05 0
0.000108839 4.07536e-05 0
0.000106472 4.76905e-05 0
0.000107274 4.57868e-05 0
0.000108011 3.92415e-05 0
0.000106885 4.04365e-05 0
0.000106625 3.88708e-05 0
0.000105286 4.19254e-05 0
0.000105055 3.95469e-05 0
0.000104215 4.39764e-05 0
0.000106346 4.40629e-05 0
0.000100945 4.51249e-05 0
0.000102825 4.5614e-05 0
0.000101189 4.68452e-05 0
0.000107625 3.8125e-05 0
0.000105575 3.7875e-05 0
0.0001066 3.8e-05 0
0.000103352 4.76905e-05 0
0.000101803 4.8465e-05 0
0.000103685 3.89398e-05 0
0.00010245 3.8825e-05 0
0.000103525 3.7625e-05 0
0.000101092 3.99779e-05 0
0.000101267 3.82619e-05 0
0.000101382 4.2025e-05 0
0.000103187 4.05286e-05 0
0.000103359 4.24605e-05 0
9.87383e-05 4.5447e-05 0
9.99411e-05 4.35161e-05 0
9.744e-05 4.33145e-05 0
0.00010045 3.725e-05 0
0.000101475 3.7375e-05 0
9.70845e-05 4.65215e-05 0
9.52614e-05 4.67664e-05 0
9.61768e-05 4.49944e-05 0
9.9729e-05 3.87704e-05 0
9.78901e-05 3.9598e-05 0
9.85823e-05 3.81492e-05 0
9.62289e-05 3.93709e-05 0
9.74259e-05 3.81279e-05 0
9.7375e-05 3.6875e-05 0
9.63045e-05 3.76631e-05 0
9.58e-05 5e-05 0
9.32e-05 5e-05 0
9.47542e-05 4.8457e-05 0
9.49675e-05 3.85246e-05 0
9.36214e-05 3.89472e-05 0
9.40006e-05 3.74906e-05 0
9.66411e-05 4.12573e-05 0
9.44241e-05 4.07079e-05 0
9.03569e-05 4.24993e-05 0
9.21701e-05 4.02409e-05 0
9.27439e-05 4.27744e-05 0
8.89795e-05 4.09067e-05 0
9.03071e-05 4.0248e-05 0
9.25447e-05 3.77721e-05 0
9.3275e-05 3.6375e-05 0
9.07708e-05 3.87127e-05 0
9.11303e-05 3.70839e-05 0
9.11933e-05 4.55145e-05 0
9.30678e-05 4.73279e-05 0
9.11886e-05 4.82603e-05 0
8.87724e-05 3.88076e-05 0
8.99595e-05 3.75116e-05 0
9.02e-05 3.6e-05 0
8.89241e-05 3.6954e-05 0
8.36977e-05 4.59472e-05 0
8.36223e-05 4.83578e-05 0
8.20467e-05 4.74142e-05 0
8.71227e-05 4.03557e-05 0
8.61e-05 3.55e-05 0
8.68368e-05 3.65714e-05 0
8.5484e-05 3.6588e-05 0
8.47735e-05 4.02845e-05 0
8.23121e-05 4.21599e-05 0
8.26582e-05 3.98147e-05 0
8.46943e-05 4.2454e-05 0
8.38832e-05 3.78613e-05 0
8.35569e-05 3.63808e-05 0
8.44098e-05 3.6291e-05 0
8.5075e-05 3.5375e-05 0
8.51465e-05 4.77163e-05 0
8.3025e-05 3.5125e-05 0
8.22824e-05 3.68659e-05 0
8.1446e-05 3.57362e-05 0
8.05884e-05 3.71794e-05 0
7.53471e-05 4.77524e-05 0
7.38313e-05 4.73927e-05 0
7.39102e-05 4.61526e-05 0
7.9826e-05 3.58588e-05 0
7.88607e-05 3.76287e-05 0
7.81733e-05 3.57987e-05 0
8.16783e-05 3.84471e-05 0
8.07975e-05 4.04095e-05 0
7.52138e-05 4.04775e-05 0
7.67682e-05 4.17043e-05 0
7.49617e-05 4.21803e-05 0
7.52903e-05 3.84008e-05 0
7.38293e-05 3.93136e-05 0
[...]
CELL_DATA 58684
VECTORS velocity DOUBLE
74.2604 0.337267 0
87.465 0.000101924 0
87.4408 7.50691e-05 0
87.4679 0.00113539 0
87.4419 -0.00183746 0
87.473 -0.00263432 0
87.4477 0.00315154 0
77.8816 -0.00143434 0
77.8973 -0.0245489 0
78.0098 -0.002574 0
78.1267 -0.0049911 0
78.1917 -0.40994 0
77.9338 -0.10978 0
78.2734 -0.135196 0
77.9119 -0.185132 0
78.4756 -0.170388 0
77.8823 -0.112807 0
78.8416 -0.157686 0
77.9649 -0.318146 0
79.3563 -0.111535 0
77.8947 -0.115892 0
78.8101 -0.370007 0
85.4239 -2.1652 0
77.8628 0.0123646 0
77.8671 0.0514249 0
77.8622 0.0249865 0
77.9074 0.142358 0
77.897 0.0234303 0
77.9014 0.188795 0
78.0067 0.0491419 0
77.8919 0.145485 0
77.9603 0.0333135 0
77.855 0.14412 0
78.3459 0.16285 0
78.0551 1.13459 0
78.1966 0.0688042 0
77.9035 0.179419 0
78.4255 0.354791 0
87.4736 -0.00308411 0
87.4766 -5.4864e-05 0
87.4837 -0.00299231 0
87.4836 -0.00499924 0
87.4856 0.000215997 0
87.4924 -0.00268324 0
87.4934 -0.00652795 0
87.4932 -0.00566016 0
87.4954 -0.000402021 0
87.5009 -0.00596752 0
87.5001 -0.00685702 0
87.5001 -6.13061e-05 0
87.5075 -0.00620955 0
87.5069 -0.0088879 0
87.5065 -0.00712715 0
87.5072 -0.000936305 0
87.5117 -0.00806145 0
87.5106 -0.00788628 0
87.5096 -0.000615713 0
87.5171 -0.0101673 0
87.5158 -0.0114387 0
87.5155 -0.00748697 0
87.517 -0.000715705 0
87.5213 -0.0150333 0
87.5201 -0.0101859 0
87.5246 -0.00182373 0
87.5281 -0.0165471 0
87.5264 -0.0169476 0
87.5281 -0.0117581 0
87.529 -0.00134763 0
87.531 -0.0187439 0
87.5328 -0.012581 0
87.5322 -0.000897 0
87.537 -0.0209017 0
87.5391 -0.0165078 0
87.5437 -0.0236179 0
87.539 -0.00124515 0
87.5441 -0.017897 0
87.545 -0.0110812 0
87.5451 -0.00215109 0
87.5507 -0.0262687 0
87.5565 -0.0201174 0
87.5513 -0.021817 0
87.5539 -0.0028402 0
87.5567 -0.0135944 0
87.5562 -0.0262415 0
87.5664 -0.017626 0
87.5642 -0.0237329 0
87.5693 -0.0309921 0
87.5743 -0.0389264 0
87.5769 -0.024942 0
87.588 -0.0345427 0
87.5757 -0.0307252 0
87.5847 -0.0436554 0
87.5861 -0.0340928 0
87.5885 -0.0322969 0
87.5948 -0.0458129 0
87.608 -0.0407232 0
87.5921 -0.0354453 0
87.6052 -0.0490629 0
87.6151 -0.0542675 0
87.6081 -0.0391752 0
87.6224 -0.05034 0
87.6152 -0.0454782 0
87.6183 -0.016555 0
87.6305 -0.0551815 0
87.6392 -0.0512012 0
87.6366 -0.0578929 0
87.628 -0.0131659 0
87.6454 -0.0610484 0
87.6557 -0.0691954 0
87.6498 -0.0385239 0
87.6506 -0.0407669 0
87.6446 -0.0555697 0
87.668 -0.0731443 0
87.6544 -0.0300982 0
87.6841 -0.0655671 0
87.668 -0.0423345 0
87.6764 -0.0035101 0
87.6911 -0.0742451 0
87.7002 -0.0874811 0
87.7178 -0.0754985 0
87.7204 -0.0583901 0
87.6878 -0.0446396 0
87.7244 -0.0865152 0
87.7344 -0.058807 0
87.7415 -0.0908268 0
87.7112 -0.0346081 0
87.7479 -0.0818655 0
87.7394 -0.0315047 0
87.7582 -0.0942108 0
87.7772 -0.1081 0
87.7832 -0.0646853 0
87.7881 -0.0914771 0
87.755 -0.042924 0
87.8164 -0.115908 0
87.7609 -0.0342509 0
87.8045 -0.115799 0
87.847 -0.128342 0
87.8468 -0.0907775 0
87.857 -0.110999 0
87.834 -0.107038 0
87.8541 -0.117615 0
87.8085 -0.0500775 0
87.8849 -0.134289 0
87.9056 -0.14796 0
87.9135 -0.0971744 0
87.8517 -0.073763 0
87.8946 -0.12704 0
87.9113 -0.148747 0
87.8615 -0.0304541 0
87.9609 -0.158578 0
87.9734 -0.176667 0
87.9872 -0.109362 0
87.9184 -0.0951845 0
87.9769 -0.150001 0
87.9947 -0.175182 0
87.9267 -0.0323706 0
88.0115 -0.202589 0
88.0491 -0.216864 0
88.0455 -0.152769 0
88.0498 -0.177086 0
88.0813 -0.161152 0
88.0778 -0.224619 0
88.0528 -0.0601764 0
88.0839 -0.211959 0
88.1392 -0.215921 0
88.0976 -0.0696691 0
88.1926 -0.254915 0
88.2105 -0.235566 0
88.1874 -0.15058 0
88.2303 -0.115061 0
88.1985 -0.261691 0
88.2306 -0.288026 0
88.2034 -0.0590989 0
88.2853 -0.29135 0
88.3253 -0.298673 0
88.2512 -0.214594 0
88.2982 -0.13521 0
88.3295 -0.177866 0
88.3556 -0.341693 0
88.3647 -0.116067 0
88.4061 -0.318815 0
88.431 -0.31308 0
88.4558 -0.365529 0
88.389 -0.00554959 0
88.5413 -0.363951 0
88.4338 -0.281696 0
88.5347 -0.254286 0
88.5969 -0.296512 0
88.5866 -0.403241 0
88.6336 -0.406878 0
88.4938 -0.0917872 0
88.6641 -0.394421 0
88.6922 -0.454603 0
88.7025 -0.437291 0
88.7616 -0.100264 0
88.681 -0.346543 0
88.8443 -0.50193 0
88.8754 -0.378374 0
88.8009 -0.318761 0
88.8944 -0.528366 0
88.884 -0.523408 0
88.754 -0.0903803 0
88.9752 -0.578832 0
89.0083 -0.543452 0
89.1456 -0.105144 0
89.0966 -0.593898 0
88.9511 -0.41759 0
89.1748 -0.377622 0
89.237 -0.485413 0
89.1427 -0.537703 0
89.1729 -0.642756 0
89.1983 -0.229564 0
89.3281 -0.617043 0
89.2919 -0.712077 0
89.4658 -0.719321 0
89.3908 -0.0115798 0
89.4107 -0.59128 0
89.4766 -0.742444 0
89.2984 -0.182883 0
89.5365 -0.780174 0
89.6042 -0.448168 0
89.5809 -0.815772 0
89.743 -0.249588 0
89.7302 -0.699149 0
89.7041 -0.823143 0
89.6119 -0.126232 0
89.8385 -0.848632 0
90.0012 -0.823336 0
89.8466 -0.702613 0
89.8794 -0.422806 0
90.0375 -0.944727 0
90.0144 -0.369403 0
90.1512 -0.0633126 0
89.9742 -0.743638 0
90.1449 -0.933203 0
90.2291 -1.00231 0
90.2196 -0.31279 0
90.3544 -0.863056 0
90.5049 -0.944054 0
90.2807 -0.105602 0
90.6406 -0.916528 0
90.5663 -1.02409 0
90.4186 -0.758552 0
90.4573 -0.365212 0
90.5684 -0.426428 0
90.7093 -1.02733 0
90.5992 -0.00662944 0
90.8111 -1.09528 0
90.9376 -1.03892 0
90.8968 -1.09384 0
90.8327 -0.236684 0
90.989 -0.890637 0
91.2291 -0.902794 0
90.7894 -0.00472862 0
91.3192 -1.0718 0
91.4833 -0.910287 0
91.14 -0.659426 0
90.9559 -0.270587 0
91.4828 -1.02897 0
91.1164 -0.336302 0
90.9038 -0.0147594 0
91.4056 -0.690604 0
91.7324 -0.935216 0
91.8911 -0.87304 0
91.0785 -0.0683846 0
91.8355 -0.592004 0
91.9747 -0.780132 0
90.9309 0.0340412 0
92.1095 -0.769021 0
92.2903 -0.642157 0
91.9153 -0.217721 0
90.673 0.00947782 0
92.4415 -0.422924 0
91.5827 0.204584 0
91.8107 0.310961 0
92.3153 -0.273554 0
92.095 -0.0164381 0
92.7619 -0.0415272 0
90.791 0.373202 0
92.7473 -0.143066 0
92.3013 0.422776 0
92.9422 0.491088 0
90.7108 0.108477 0
92.8955 1.18899 0
92.6676 1.41927 0
89.3188 0.1984 0
93.1204 0.880117 0
93.0195 1.35752 0
90.6786 1.47301 0
90.438 0.703571 0
91.9663 1.11134 0
92.917 1.88965 0
89.5706 0.330199 0
92.4249 2.77739 0
93.0944 2.12433 0
93.1077 2.35155 0
88.7977 1.41206 0
91.4471 2.90881 0
92.4777 3.16331 0
88.7816 0.231999 0
92.2926 3.66409 0
91.9415 3.54924 0
90.9727 5.1748 0
86.4782 0.397502 0
92.1105 4.86916 0
90.1201 3.51461 0
88.2504 1.5626 0
87.8569 2.9803 0
91.8753 5.37584 0
90.7398 5.83073 0
86.9191 0.608249 0
90.811 6.65495 0
87.4482 0.00292089 0
87.4506 5.48677e-05 0
87.4564 0.00224861 0
87.4559 0.00487904 0
87.4574 -0.000252028 0
87.4639 0.00252359 0
87.4645 0.00622265 0
87.4643 0.00541297 0
87.4662 0.000381667 0
87.471 0.00538111 0
87.4702 0.00571894 0
87.4697 1.9266e-05 0
87.4765 0.00596234 0
87.4756 0.00846479 0
87.4751 0.00678308 0
87.4756 0.000899217 0
87.4799 0.0080711 0
87.4788 0.00803031 0
87.4777 0.000604716 0
87.485 0.00963011 0
87.4838 0.0110692 0
87.4896 0.0145242 0
87.4835 0.00726541 0
87.4905 0.00819097 0
87.495 0.0139361 0
87.4878 0.0102382 0
87.4946 0.0165116 0
87.4961 0.0116344 0
87.5008 0.0175833 0
87.4943 0.0097661 0
87.5008 0.0128782 0
87.507 0.0200717 0
87.5002 0.00989137 0
87.5123 0.0236649 0
87.5111 0.0244198 0
87.5129 0.0169829 0
87.5064 0.0115766 0
87.5126 0.018223 0
87.5188 0.0178024 0
87.5135 0.0113399 0
87.5251 0.0315773 0
87.5182 0.0134459 0
87.5262 0.0205643 0
87.5203 0.0156713 0
87.5261 0.0267702 0
87.54 0.0313962 0
87.5365 0.0180294 0
87.534 0.0285013 0
87.5465 0.0326073 0
87.5455 0.0383735 0
87.5504 0.0196587 0
87.5479 0.0252217 0
87.5592 0.0349009 0
87.5682 0.0483464 0
87.561 0.0237648 0
87.5713 0.0374069 0
87.578 0.0508057 0
87.571 0.028034 0
87.5634 0.035787 0
87.5878 0.0551408 0
87.5857 0.0548794 0
87.5808 0.0343808 0
87.5866 0.0246743 0
87.5952 0.050559 0
87.564 0.0136471 0
87.6098 0.0584405 0
87.6295 0.0709322 0
87.6148 0.0592797 0
87.6009 0.034502 0
87.6335 0.0715398 0
87.6373 0.0627967 0
87.6308 0.0305295 0
87.6198 0.0569354 0
87.6457 0.0660366 0
87.6558 0.0747703 0
87.6165 0.0173166 0
87.6428 0.0540233 0
87.6771 0.0875847 0
87.6461 0.0437822 0
87.6826 0.0762031 0
87.6998 0.0907425 0
87.6753 0.0662058 0
87.679 0.0275579 0
87.7018 0.0801728 0
87.7164 0.0917515 0
87.6836 0.0216779 0
87.7313 0.100667 0
87.6978 0.074246 0
87.7385 0.0829592 0
87.7074 0.0586474 0
87.7514 0.108003 0
87.7883 0.128664 0
87.7376 0.033727 0
87.7484 0.0877973 0
87.8073 0.135563 0
87.7789 0.0984817 0
87.7327 0.0418904 0
87.8155 0.128658 0
87.8268 0.133152 0
87.7747 0.0333269 0
87.8094 0.0585713 0
87.8426 0.11716 0
87.8628 0.154147 0
87.7963 0.0811222 0
87.8819 0.148332 0
87.896 0.159108 0
87.873 0.0548813 0
87.8678 0.0976154 0
87.9281 0.176366 0
87.9173 0.149532 0
87.8284 0.0476374 0
87.9369 0.168322 0
87.9723 0.181247 0
87.9335 0.071674 0
87.9452 0.154184 0
88.0193 0.213549 0
87.9993 0.16441 0
87.8905 0.0525966 0
88.0352 0.201187 0
88.0855 0.242026 0
87.9734 0.0695351 0
88.0663 0.19358 0
88.0356 0.0909642 0
88.0974 0.201415 0
88.0207 0.11443 0
88.1318 0.25652 0
88.1737 0.257008 0
88.074 0.0699148 0
88.1625 0.250238 0
88.227 0.289115 0
88.1632 0.0748965 0
88.1343 0.210549 0
88.2089 0.246004 0
88.2643 0.292594 0
88.1443 0.0442037 0
88.2682 0.266903 0
88.3584 0.345591 0
88.3315 0.289361 0
88.261 0.0882714 0
88.3939 0.301131 0
88.2236 0.113041 0
88.2678 0.254993 0
88.3908 0.33435 0
88.4865 0.378617 0
88.4926 0.387419 0
88.2354 0.00818134 0
88.5809 0.44046 0
88.5892 0.429352 0
88.6022 0.377233 0
88.5336 0.186324 0
88.6279 0.201967 0
88.6219 0.422965 0
88.4033 0.115438 0
88.7322 0.47674 0
88.7204 0.466782 0
88.7225 0.41907 0
88.6099 0.121033 0
88.797 0.466044 0
88.917 0.579395 0
88.764 0.216535 0
88.7199 0.231365 0
88.869 0.467314 0
89.0297 0.600725 0
88.645 0.144025 0
89.0668 0.634438 0
89.1008 0.616845 0
88.903 0.120892 0
89.2321 0.701996 0
89.2629 0.673895 0
89.318 0.577931 0
89.0981 0.255652 0
89.074 0.290187 0
89.2425 0.649483 0
88.9814 0.188877 0
89.4028 0.772009 0
89.4516 0.72802 0
89.4431 0.668327 0
89.1761 0.102239 0
89.6141 0.786994 0
89.6292 0.802749 0
89.4651 0.452437 0
89.7089 0.630671 0
89.4765 0.367097 0
89.6787 0.768886 0
89.3677 0.234165 0
89.8311 0.892416 0
89.8538 0.862282 0
89.3991 0.184775 0
89.9137 0.792159 0
90.0926 0.91137 0
90.0071 0.89049 0
89.8733 0.20811 0
90.2925 0.950879 0
90.3347 1.01377 0
89.8448 0.618523 0
90.2179 0.751651 0
89.8934 0.376647 0
90.5198 1.06467 0
90.049 0.116027 0
90.5795 1.03364 0
90.5703 0.978871 0
89.877 0.0923305 0
90.4994 0.886222 0
90.8799 1.04549 0
90.968 1.05424 0
90.4295 0.265244 0
91.0376 1.02801 0
91.0845 1.09514 0
90.4237 0.670307 0
91.0842 0.72282 0
90.5786 0.257139 0
91.2447 1.09288 0
90.5982 0.0955354 0
91.3842 1.01976 0
91.4699 1.00491 0
90.4355 0.0672917 0
91.2919 0.830701 0
91.7492 0.936375 0
91.9067 0.875402 0
90.8495 0.16647 0
91.7462 0.818719 0
92.0408 0.827484 0
91.3809 0.707867 0
91.8304 0.405945 0
90.9245 0.103064 0
91.8146 0.739734 0
90.9309 0.0372067 0
92.2809 0.724662 0
92.3653 0.581405 0
90.8343 0.0362322 0
92.0737 0.278219 0
92.5123 0.305247 0
92.6982 0.173261 0
90.9133 -0.0997839 0
92.7878 -0.025408 0
92.8324 -0.159778 0
91.0556 -0.27093 0
92.8479 -0.189262 0
92.0561 -0.637879 0
91.3371 -0.0984991 0
91.1488 -0.00425316 0
92.9829 -0.476025 0
92.7446 -0.869652 0
93.1727 -1.04297 0
90.8028 -0.00592353 0
92.4575 -1.3183 0
93.1752 -1.77326 0
90.7564 -0.124238 0
92.2913 -1.28556 0
93.1527 -2.31098 0
91.7355 -1.75254 0
90.7265 -0.6571 0
92.9615 -2.65941 0
92.8248 -2.95307 0
91.697 -1.10797 0
91.1379 -3.12769 0
89.1071 -2.58693 0
92.4644 -2.99438 0
89.5288 -0.403325 0
92.4526 -3.94215 0
89.8835 7.25879 0
90.6166 6.48355 0
85.1995 1.92244 0
89.7778 7.21739 0
87.5356 6.61271 0
89.1167 7.85192 0
85.7971 0.754863 0
88.1352 8.0587 0
86.9584 7.9363 0
84.5352 0.961902 0
87.033 8.46132 0
92.3628 -4.36299 0
89.7745 -0.251626 0
92.0978 -4.70803 0
90.8574 -5.11312 0
90.3039 -4.40175 0
88.8761 -0.267748 0
91.1004 -5.70052 0
85.7239 7.73513 0
90.4484 -6.98099 0
88.6228 -1.39479 0
90.125 -6.74803 0
89.2586 -7.71582 0
83.3689 2.36416 0
88.8211 -7.57439 0
90.0376 -4.21646 0
89.3138 -6.86018 0
87.447 -5.08111 0
86.5065 -0.834643 0
88.3732 -6.97124 0
87.5776 -7.38392 0
85.0987 8.16277 0
87.6496 -7.39419 0
87.3453 -0.45278 0
86.6155 -7.75227 0
86.1016 -8.45774 0
85.8201 -0.561902 0
85.0068 -8.60627 0
85.5149 -6.31454 0
83.6308 -0.651352 0
83.9921 -8.76058 0
84.0527 -4.85934 0
85.78 -3.82185 0
84.5345 -7.49872 0
83.42 -7.85358 0
86.0968 4.38311 0
82.45 0.528765 0
85.5005 2.93226 0
84.1441 -0.0735727 0
82.8744 -8.51978 0
84.7203 7.733 0
82.1735 0.384239 0
84.1432 6.58102 0
82.0051 -8.38584 0
83.7102 -1.71448 0
81.2841 -6.12448 0
84.1422 8.81502 0
81.0453 2.02592 0
84.0417 8.74134 0
81.8034 7.29625 0
81.3348 0.413158 0
82.444 7.66845 0
81.8966 -6.36917 0
83.2152 -0.473915 0
81.1477 -8.51474 0
81.1648 -8.28289 0
82.8196 8.2351 0
80.8848 7.85512 0
80.6321 0.040441 0
81.9523 8.10708 0
80.0673 5.08347 0
80.6371 2.28917 0
80.2214 -8.46519 0
81.1132 -1.09907 0
80.5556 -8.34005 0
79.7583 8.30828 0
79.591 -7.73523 0
80.2287 -1.07861 0
79.8613 -3.40073 0
78.3247 -7.43292 0
81.3498 -4.10851 0
78.1824 -7.18872 0
79.7138 -0.289732 0
77.2642 -6.86912 0
79.3905 2.86642 0
79.993 0.461326 0
79.3228 6.9771 0
79.3637 0.116059 0
79.1235 8.18573 0
78.8331 7.68436 0
79.0375 0.184968 0
78.0639 6.72648 0
78.8064 0.1335 0
78.6469 -6.42534 0
79.7126 -0.575846 0
79.8753 6.04752 0
77.9367 0.738799 0
77.6153 6.31722 0
77.147 -6.83022 0
79.826 -0.23088 0
75.5119 -5.84044 0
77.9056 -0.44197 0
76.3308 -5.74762 0
78.6474 2.55143 0
77.859 0.120449 0
79.3635 -5.23089 0
77.8614 -0.113264 0
75.6305 -5.41137 0
77.0172 5.70034 0
77.0244 -4.27281 0
77.8861 -0.244575 0
75.9276 -4.63559 0
78.0139 3.14544 0
75.8595 1.99765 0
76.511 4.92825 0
77.6852 -0.987193 0
75.7773 -5.13783 0
77.8354 0.40297 0
76.4436 6.64975 0
77.7694 -2.38123 0
77.8604 -0.08467 0
75.4406 -4.63355 0
76.1688 5.94169 0
77.8668 0.718265 0
76.1078 4.64426 0
75.8339 4.58434 0
77.83 0.381033 0
75.0322 4.08145 0
74.5878 -4.16386 0
77.8566 -0.296204 0
74.2861 -4.15537 0
76.6325 -1.9819 0
77.8646 -0.202052 0
73.6564 -2.8325 0
75.0988 5.07827 0
77.7952 0.622517 0
76.3213 3.25361 0
74.2629 -2.5733 0
77.7777 -0.312056 0
73.6174 -2.34377 0
73.9803 3.7375 0
77.7885 0.266404 0
74.3777 3.51993 0
74.673 2.87248 0
77.8596 0.035398 0
73.8435 3.05902 0
74.948 -1.51491 0
77.7341 -0.542751 0
74.2437 -1.33461 0
73.0754 -0.850251 0
77.1024 -0.926879 0
73.1245 -0.719792 0
76.8139 0.960739 0
77.8093 0.0771405 0
75.9343 2.43863 0
73.6222 2.46415 0
77.6915 0.0593487 0
73.1985 1.55625 0
77.4308 -0.236615 0
77.8479 -0.11201 0
73.1228 -0.236999 0
73.6439 -0.0932972 0
77.8279 -0.0662974 0
75.8399 0.308373 0
73.8099 0.527781 0
77.8368 -0.062367 0
77.2304 -5.66245 0
77.9406 -0.433539 0
77.851 0.132446 0
78.08 6.88848 0
79.0311 -7.74145 0
82.0807 -0.945633 0
80.464 0.996914 0
81.7189 8.61377 0
77.8115 0.279948 0
74.547 4.85935 0
74.0167 -2.84059 0
77.8156 -0.20099 0
77.894 -0.573464 0
77.5977 -3.67415 0
77.9664 0.802455 0
77.9145 0.200847 0
77.8219 -0.000815463 0
73.6906 2.05556 0
79.3232 0.466776 0
78.4108 1.57797 0
78.7387 -1.37447 0
80.2747 -0.691541 0
85.9075 -1.26501 0
85.4857 -8.44943 0
87.3856 8.05794 0
85.4386 0.467649 0
77.7725 1.66644 0
79.6736 8.00299 0
78.5907 -7.08708 0
79.2811 -2.31681 0
76.9215 -1.46134 0
74.6355 -0.222722 0
76.2037 5.83589 0
78.0943 1.89447 0
77.9315 -1.79173 0
74.8139 -4.63889 0
91.8453 -5.34804 0
88.558 -0.658269 0
88.1307 0.786895 0
92.289 4.44523 0
77.9617 -0.816152 0
77.887 -0.0451223 0
77.8784 0.148378 0
78.9651 0.75821 0
83.157 0.734143 0
82.7885 4.10238 0
81.2345 -1.98994 0
84.3632 -1.74288 0
81.7003 4.89772 0
84.6561 8.29636 0
83.4823 -8.67867 0
82.5923 -1.91916 0
86.6833 1.60612 0
87.7726 5.0111 0
86.3273 -2.78336 0
87.4878 -0.041721 0
90.7007 -0.250269 0
93.1346 -1.28939 0
92.9758 0.501272 0
89.8851 0.0284597 0
90.8965 0.00336695 0
92.4067 0.564285 0
92.1916 -0.547357 0
91.0323 0.0377167 0
79.0351 -1.4494 0
78.465 -0.574879 0
78.3839 1.23848 0
79.2039 0.952138 0
78.22 1.22806 0
77.8853 0.241711 0
77.8584 -0.106627 0
78.142 -1.12934 0
89.5697 0.948198 0
90.8061 1.86806 0
89.8948 -1.13758 0
90.1067 -0.169122 0
75.9711 -0.96056 0
77.8471 -0.156033 0
77.4707 -0.440192 0
77.8652 -0.376239 0
77.8531 0.204885 0
77.881 0.968196 0
91.5394 0.952364 0
90.7282 0.149712 0
90.8547 -0.00451133 0
91.2843 -1.02833 0
81.7026 -0.0391755 0
80.9351 -2.82751 0
82.009 1.80504 0
80.6928 0.448295 0
77.8488 4.05111 0
77.3651 7.32395 0
77.1065 -6.26871 0
78.3099 -3.23262 0
78.8008 -2.11473 0
77.5422 -2.23292 0
77.9446 4.64379 0
78.2299 2.22784 0
91.0371 0.0498946 0
90.7631 0.142916 0
90.9509 -0.049705 0
91.9178 0.0921487 0
79.7886 -5.42752 0
80.8774 -5.26294 0
80.4568 4.64377 0
81.0119 8.53437 0
79.1135 -3.9846 0
80.2845 -2.31568 0
80.1196 3.11983 0
79.2691 1.53911 0
90.8177 1.11005 0
90.2639 0.137586 0
90.4821 -0.0109559 0
90.422 -0.999486 0
77.3104 1.01648 0
77.8443 0.0291411 0
90.92 -0.0541846 0
91.5599 -0.340996 0
91.2752 0.238572 0
90.7645 0.0365663 0
78.8339 -0.958049 0
78.3561 -1.3346 0
79.1484 1.74497 0
78.231 0.736193 0
77.8927 -0.147212 0
78.148 -0.700365 0
77.9652 0.315629 0
77.8673 0.136376 0
74.1223 1.7148 0
76.9587 1.52635 0
87.0878 -3.14442 0
90.4396 -6.32766 0
91.4025 5.77484 0
86.7991 2.26812 0
76.8124 -2.31695 0
74.756 -2.9035 0
89.6348 0.152586 0
89.9113 0.858269 0
88.9789 0.0746355 0
89.5828 0.823708 0
89.9288 -0.838438 0
89.7549 -0.137639 0
89.3579 -0.692951 0
89.2586 -0.0138291 0
90.6413 -0.207746 0
90.7655 -0.59942 0
90.6121 0.377288 0
90.3764 0.00745877 0
77.8555 0.179144 0
77.6806 0.540209 0
76.4554 0.452214 0
74.2148 0.846435 0
77.791 -0.250873 0
77.8394 -0.16977 0
77.378 0.274635 0
77.3093 -0.752364 0
92.962 -2.71148 0
89.8171 -1.73996 0
90.799 2.20604 0
93.1215 1.58463 0
78.0254 -0.0633556 0
78.1282 -0.365476 0
77.8927 0.0532082 0
78.3079 0.261435 0
90.0854 -0.199491 0
90.1149 -0.5175 0
90.1307 0.344867 0
89.7605 0.112344 0
88.8151 0.167332 0
88.995 0.52417 0
89.0247 -0.613767 0
88.9004 -0.1484 0
78.4782 -0.900017 0
79.4038 -2.13712 0
78.8408 1.61382 0
78.4599 1.27372 0
79.1738 2.88335 0
77.5874 1.85335 0
78.1293 -1.92517 0
78.7984 -2.79629 0
91.378 -0.532712 0
92.33 0.291338 0
92.499 -0.285601 0
91.7986 0.570204 0
77.6925 -1.15113 0
77.811 -1.36761 0
77.8341 1.08463 0
77.341 1.30871 0
88.8444 0.547653 0
88.5609 0.164402 0
88.6173 -0.1024 0
88.7892 -0.46736 0
85.1869 4.262 0
87.1985 7.11504 0
86.6911 -8.38208 0
86.2354 -3.3386 0
75.2345 -3.42723 0
77.5597 -3.51667 0
84.8084 -3.05874 0
85.4549 -1.09609 0
83.8025 0.453817 0
87.1352 3.09878 0
74.8307 4.62772 0
76.7264 2.73483 0
89.4815 -0.0508137 0
89.6614 -0.532048 0
89.5398 0.351332 0
89.4504 0.0953843 0
88.9991 -0.367975 0
88.7739 -1.50884 0
89.3272 2.0776 0
88.3467 0.271163 0
83.1665 1.39611 0
81.415 0.350253 0
82.5434 -0.336304 0
83.2092 -3.10775 0
91.2385 0.308918 0
91.5225 0.826325 0
91.6775 -0.900966 0
91.5549 -0.0489367 0
82.1973 -3.82988 0
83.2953 -1.83578 0
82.5101 2.70986 0
85.0729 5.97965 0
88.4676 0.336025 0
88.343 0.0638461 0
88.5024 -0.100288 0
88.4654 -0.34971 0
89.0007 -0.183339 0
89.1497 -0.00909757 0
89.1252 0.101137 0
88.979 0.432116 0
79.9397 0.497906 0
79.6962 1.30468 0
79.9578 -1.14733 0
80.8066 -0.318917 0
81.4821 2.82645 0
79.858 1.95008 0
79.2419 -2.83609 0
78.4067 -2.8648 0
90.7348 -0.479433 0
90.4841 -0.277434 0
90.302 0.373996 0
91.2408 0.621875 0
79.855 3.84735 0
80.3606 2.57131 0
79.3102 -0.825475 0
79.1378 -0.293914 0
78.9753 0.265944 0
79.7017 0.888875 0
76.5775 -0.87569 0
77.542 -1.34977 0
92.3298 -3.61766 0
89.8664 -2.05708 0
89.3214 3.73557 0
92.7197 3.67933 0
77.9005 -0.866313 0
77.885 -0.143291 0
77.8254 0.198625 0
77.9736 0.847601 0
78.2371 0.0873552 0
78.2616 0.626456 0
78.4138 -0.343625 0
78.5624 -0.0198862 0
75.4449 -0.269072 0
73.1384 0.151494 0
85.1917 3.21757 0
89.2797 2.96235 0
87.9675 -2.50695 0
88.5661 -4.95776 0
77.597 2.0688 0
77.155 1.15458 0
77.8585 -0.025381 0
77.6676 -0.0507919 0
80.4201 6.83392 0
78.3135 4.06032 0
80.0563 -4.29905 0
79.0842 -8.10565 0
77.3852 0.785428 0
77.7784 0.42458 0
90.6487 0.501837 0
90.9952 1.09225 0
90.7071 -0.998054 0
90.6215 -0.19584 0
88.6294 -0.120851 0
88.8207 -0.0813155 0
88.7962 0.069946 0
88.713 0.40546 0
92.8765 0.42309 0
91.7345 1.36811 0
91.7939 -0.550375 0
93.0057 -0.675026 0
77.4865 0.10715 0
76.8698 -1.75372 0