# vtk DataFile Version 3.0
Unstructured Grid for Triangles
ASCII
DATASET UNSTRUCTURED_GRID
POINTS 29612 DOUBLE
-2.72397e-05 1.23686e-06 0
-2.95789e-05 9.5838e-07 0
-2.77865e-05 -3.1235e-07 0
0.0002024 5e-05 0
0.000203975 4.9875e-05 0
0.000205 5e-05 0
0.000203975 -4.9875e-05 0
0.0002024 -5e-05 0
0.000205 -5e-05 0
0.00020295 4.975e-05 0
0.00020295 -4.975e-05 0
0.000201925 4.9625e-05 0
0.000201925 -4.9625e-05 0
-5.29747e-05 -4.79887e-05 0
-5.5e-05 -5e-05 0
-5.24e-05 -5e-05 0
-5.05983e-05 -4.84325e-05 0
-4.98e-05 -5e-05 0
-4.72e-05 -5e-05 0
-4.83864e-05 -4.87761e-05 0
-4.46e-05 -5e-05 0
-4.59e-05 -4.84239e-05 0
-4.29453e-05 -4.24878e-05 0
-4.47486e-05 -4.20717e-05 0
-4.41829e-05 -4.36609e-05 0
-5.12578e-05 -4.62101e-05 0
-4.93077e-05 -4.53594e-05 0
-5.0706e-05 -4.39006e-05 0
-4.19243e-05 -4.77545e-05 0
-4.40307e-05 -4.71837e-05 0
-4.3691e-05 -4.86724e-05 0
-5.16129e-05 -4.20948e-05 0
-4.95355e-05 -4.15432e-05 0
-5.11646e-05 -4.0128e-05 0
-3.94697e-05 -4.81197e-05 0
-4.06302e-05 -4.55143e-05 0
-5.37257e-05 -3.88197e-05 0
-5.31099e-05 -4.07297e-05 0
-5.23982e-05 -3.88328e-05 0
-3.70063e-05 -4.72956e-05 0
-3.68e-05 -5e-05 0
-3.5308e-05 -4.85302e-05 0
-5.072e-05 -3.7867e-05 0
-4.85506e-05 -3.83975e-05 0
-4.90949e-05 -3.59622e-05 0
-3.37127e-05 -4.84331e-05 0
-3.16e-05 -5e-05 0
-3.26495e-05 -4.7415e-05 0
-5.5e-05 -3.5e-05 0
-5.31201e-05 -3.70361e-05 0
-5.28367e-05 -3.46817e-05 0
-3.63898e-05 -4.48809e-05 0
-3.83315e-05 -4.60336e-05 0
-3.26269e-06 -4.15503e-05 0
-5.99662e-06 -4.09556e-05 0
-5.46944e-06 -4.29488e-05 0
-5.29747e-05 4.79887e-05 0
-5.5e-05 5e-05 0
-5.5e-05 4.75e-05 0
-5.5e-05 4.5e-05 0
-5.34834e-05 4.29171e-05 0
-5.26943e-05 4.42611e-05 0
-5.34026e-05 4.60176e-05 0
-5.31099e-05 4.07297e-05 0
-5.11672e-05 4.01178e-05 0
-5.16129e-05 4.20948e-05 0
-5.24e-05 5e-05 0
-5.05983e-05 4.84325e-05 0
-5.31201e-05 3.70361e-05 0
-5.072e-05 3.7867e-05 0
-5.23982e-05 3.88328e-05 0
-4.8341e-05 4.69132e-05 0
-4.83679e-05 4.87539e-05 0
-5.28367e-05 3.46817e-05 0
-5.5e-05 3.25e-05 0
-5.25657e-05 3.28474e-05 0
-4.98e-05 5e-05 0
-5.30382e-05 3.125e-05 0
-4.19243e-05 4.77545e-05 0
-4.40015e-05 4.7335e-05 0
-4.25917e-05 4.63678e-05 0
-4.35138e-05 2.62661e-05 0
-4.14982e-05 2.74462e-05 0
-4.35654e-05 2.85217e-05 0
-4.59e-05 4.84239e-05 0
-4.36852e-05 4.87027e-05 0
-4.46e-05 5e-05 0
-5.33308e-05 2.92503e-05 0
-5.5e-05 2.75e-05 0
-5.23377e-05 2.76953e-05 0
-4.25282e-05 4.46352e-05 0
-4.09368e-05 4.35728e-05 0
-4.06302e-05 4.55143e-05 0
0.0002009 4.95e-05 0
0.0001998 5e-05 0
0.000199875 4.9375e-05 0
0.00019885 4.925e-05 0
0.0001972 5e-05 0
0.000197825 4.9125e-05 0
0.0001968 4.9e-05 0
0.000195775 4.8875e-05 0
0.0001946 5e-05 0
0.00019475 4.875e-05 0
0.000193725 4.8625e-05 0
0.000192 5e-05 0
0.0001927 4.85e-05 0
0.000191675 4.8375e-05 0
0.00019065 4.825e-05 0
0.0001894 5e-05 0
0.000189625 4.8125e-05 0
0.0001886 4.8e-05 0
0.0001868 5e-05 0
0.000187575 4.7875e-05 0
0.00018655 4.775e-05 0
0.000185515 4.8575e-05 0
0.0001842 5e-05 0
0.0001845 4.75e-05 0
0.000185525 4.7625e-05 0
0.000182564 4.829e-05 0
0.0001816 5e-05 0
0.00018245 4.725e-05 0
0.000183475 4.7375e-05 0
0.000181425 4.7125e-05 0
0.000180295 4.82657e-05 0
0.000179 5e-05 0
0.000179375 4.6875e-05 0
0.0001804 4.7e-05 0
0.000178168 4.80619e-05 0
0.0001764 5e-05 0
0.000177325 4.6625e-05 0
0.00017835 4.675e-05 0
0.000176428 4.76631e-05 0
0.0001763 4.65e-05 0
0.0001738 5e-05 0
0.0001751 4.84164e-05 0
0.000175275 4.6375e-05 0
0.000174025 4.75632e-05 0
0.0001712 5e-05 0
0.000172615 4.78449e-05 0
0.0001722 4.6e-05 0
0.000173225 4.6125e-05 0
0.00017015 4.575e-05 0
0.000171243 4.7381e-05 0
0.000169554 4.79999e-05 0
0.0001686 5e-05 0
0.000167507 4.79751e-05 0
0.000168498 4.64861e-05 0
0.000166 5e-05 0
0.00016558 4.71459e-05 0
0.000167135 4.62887e-05 0
0.0001681 4.55e-05 0
0.00016605 4.525e-05 0
0.000167075 4.5375e-05 0
0.000164059 4.61599e-05 0
0.00016394 4.79552e-05 0
0.000162881 4.6615e-05 0
0.000162975 4.4875e-05 0
0.000165025 4.5125e-05 0
0.000164 4.5e-05 0
0.000161754 4.58641e-05 0
0.000161722 4.78101e-05 0
0.000159956 4.58294e-05 0
0.000160925 4.4625e-05 0
0.00016195 4.475e-05 0
0.000157667 4.60322e-05 0
0.000158875 4.4375e-05 0
0.000159194 4.80155e-05 0
0.0001599 4.45e-05 0
0.00015785 4.425e-05 0
0.000155808 4.56757e-05 0
0.000155647 4.76701e-05 0
0.000154059 4.66642e-05 0
0.000153756 4.50083e-05 0
0.000154839 4.50446e-05 0
0.000156825 4.4125e-05 0
0.000151954 4.80508e-05 0
0.000154052 4.8477e-05 0
0.000153 5e-05 0
0.000154775 4.3875e-05 0
0.000152142 4.56625e-05 0
0.000152821 4.45753e-05 0
0.00015375 4.375e-05 0
0.0001504 5e-05 0
0.000149644 4.85168e-05 0
0.000151787 4.43178e-05 0
0.000152725 4.3625e-05 0
0.000150675 4.3375e-05 0
0.0001517 4.35e-05 0
0.000148119 4.50887e-05 0
0.000148072 4.75757e-05 0
0.000146584 4.63516e-05 0
0.000150008 4.6396e-05 0
0.000149351 4.4543e-05 0
0.00015061 4.46252e-05 0
0.0001476 4.3e-05 0
0.000148625 4.3125e-05 0
0.000146492 4.82975e-05 0
0.000144888 4.73562e-05 0
0.000146676 4.44259e-05 0
0.000145255 4.53656e-05 0
0.000145652 4.38669e-05 0
0.000141401 4.79821e-05 0
0.0001426 5e-05 0
0.00014 5e-05 0
0.000144374 4.38862e-05 0
0.00014555 4.275e-05 0
0.0001435 4.25e-05 0
0.000144525 4.2625e-05 0
0.000142746 4.38121e-05 0
0.000141288 4.43191e-05 0
0.000141707 4.32778e-05 0
0.00013921 4.38992e-05 0
0.000140355 4.5932e-05 0
0.000138302 4.5922e-05 0
0.000142912 4.58869e-05 0
0.000140592 4.30037e-05 0
0.00014145 4.225e-05 0
0.000136458 4.5869e-05 0
0.000137106 4.4063e-05 0
0.0001394 4.2e-05 0
0.000138259 4.28915e-05 0
0.000137484 4.77094e-05 0
0.000139166 4.78902e-05 0
0.00013586 4.78984e-05 0
0.000133449 4.78649e-05 0
0.000134717 4.61848e-05 0
0.000137256 4.25134e-05 0
0.000135323 4.24541e-05 0
0.000136325 4.1625e-05 0
0.000136122 4.2876e-05 0
0.000131206 4.47284e-05 0
0.000133168 4.56738e-05 0
0.000131773 4.65243e-05 0
0.000134756 4.40343e-05 0
0.000132747 4.36463e-05 0
0.000133483 4.26786e-05 0
0.000131081 4.1867e-05 0
0.000132382 4.22815e-05 0
0.000131507 4.3122e-05 0
0.000131059 4.80123e-05 0
0.00013325 4.125e-05 0
0.00012915 4.075e-05 0
0.00012982 4.18199e-05 0
0.000128915 4.26216e-05 0
0.000126366 4.47574e-05 0
0.000127331 4.30908e-05 0
0.000128781 4.44872e-05 0
0.000125336 4.28376e-05 0
0.000130218 4.31077e-05 0
0.000127894 4.16344e-05 0
0.000124774 4.69608e-05 0
0.000127668 4.64148e-05 0
0.000126591 4.8331e-05 0
0.000126722 4.18415e-05 0
0.000125768 4.11931e-05 0
0.000124326 4.13546e-05 0
0.00012505 4.025e-05 0
0.000122408 4.50118e-05 0
0.000120276 4.47432e-05 0
0.00012139 4.32235e-05 0
0.000124336 4.44132e-05 0
0.000123056 4.27595e-05 0
0.000122977 4.09049e-05 0
0.00012185 4.69217e-05 0
0.000122676 4.85947e-05 0
0.000120525 4.86094e-05 0
0.000121479 4.13153e-05 0
0.000119547 4.24221e-05 0
0.000120249 4.07448e-05 0
0.000119925 3.9625e-05 0
0.000119346 4.06114e-05 0
0.000117479 4.47279e-05 0
0.000114726 4.45259e-05 0
0.00011571 4.27814e-05 0
0.000119443 4.66611e-05 0
0.000117447 4.21596e-05 0
0.000118421 4.0752e-05 0
0.000117409 4.04437e-05 0
0.000116775 4.70073e-05 0
0.0001179 4.855e-05 0
0.000115473 4.84802e-05 0
0.00011685 3.925e-05 0
0.000117875 3.9375e-05 0
0.000115454 4.00551e-05 0
0.0001148 3.9e-05 0
0.000115825 3.9125e-05 0
0.000111704 4.23398e-05 0
0.000113786 4.26731e-05 0
0.000112589 4.43871e-05 0
0.000113234 4.06671e-05 0
0.000114754 4.13371e-05 0
0.0001106 4.42326e-05 0
0.000109703 4.24261e-05 0
0.00011275 3.875e-05 0
0.000113775 3.8875e-05 0
0.000110211 4.80875e-05 0
0.000108244 4.71951e-05 0
0.000109312 4.58413e-05 0
0.000111755 3.99116e-05 0
0.00010944 3.92972e-05 0
0.000110415 4.05876e-05 0
0.000108839 4.07536e-05 0
0.000106472 4.76905e-05 0
0.000107274 4.57868e-05 0
0.000108011 3.92415e-05 0
0.000106885 4.04365e-05 0
0.000106625 3.88708e-05 0
0.000105286 4.19254e-05 0
0.000105055 3.95469e-05 0
0.000104215 4.39764e-05 0
0.000106346 4.40629e-05 0
0.000100945 4.51249e-05 0
0.000102825 4.5614e-05 0
0.000101189 4.68452e-05 0
0.000107625 3.8125e-05 0
0.000105575 3.7875e-05 0
0.0001066 3.8e-05 0
0.000103352 4.76905e-05 0
0.000101803 4.8465e-05 0
0.000103685 3.89398e-05 0
0.00010245 3.8825e-05 0
0.000103525 3.7625e-05 0
0.000101092 3.99779e-05 0
0.000101267 3.82619e-05 0
0.000101382 4.2025e-05 0
0.000103187 4.05286e-05 0
0.000103359 4.24605e-05 0
9.87383e-05 4.5447e-05 0
9.99411e-05 4.35161e-05 0
9.744e-05 4.33145e-05 0
0.00010045 3.725e-05 0
0.000101475 3.7375e-05 0
9.70845e-05 4.65215e-05 0
9.52614e-05 4.67664e-05 0
9.61768e-05 4.49944e-05 0
9.9729e-05 3.87704e-05 0
9.78901e-05 3.9598e-05 0
9.85823e-05 3.81492e-05 0
9.62289e-05 3.93709e-05 0
9.74259e-05 3.81279e-05 0
9.7375e-05 3.6875e-05 0
9.63045e-05 3.76631e-05 0
9.58e-05 5e-05 0
9.32e-05 5e-05 0
9.47542e-05 4.8457e-05 0
9.49675e-05 3.85246e-05 0
9.36214e-05 3.89472e-05 0
9.40006e-05 3.74906e-05 0
9.66411e-05 4.12573e-05 0
9.44241e-05 4.07079e-05 0
9.03569e-05 4.24993e-05 0
9.21701e-05 4.02409e-05 0
9.27439e-05 4.27744e-05 0
8.89795e-05 4.09067e-05 0
9.03071e-05 4.0248e-05 0
9.25447e-05 3.77721e-05 0
9.3275e-05 3.6375e-05 0
9.07708e-05 3.87127e-05 0
9.11303e-05 3.70839e-05 0
9.11933e-05 4.55145e-05 0
9.30678e-05 4.73279e-05 0
9.11886e-05 4.82603e-05 0
8.87724e-05 3.88076e-05 0
8.99595e-05 3.75116e-05 0
9.02e-05 3.6e-05 0
8.89241e-05 3.6954e-05 0
8.36977e-05 4.59472e-05 0
8.36223e-05 4.83578e-05 0
8.20467e-05 4.74142e-05 0
8.71227e-05 4.03557e-05 0
8.61e-05 3.55e-05 0
8.68368e-05 3.65714e-05 0
8.5484e-05 3.6588e-05 0
8.47735e-05 4.02845e-05 0
8.23121e-05 4.21599e-05 0
8.26582e-05 3.98147e-05 0
8.46943e-05 4.2454e-05 0
8.38832e-05 3.78613e-05 0
8.35569e-05 3.63808e-05 0
8.44098e-05 3.6291e-05 0
8.5075e-05 3.5375e-05 0
8.51465e-05 4.77163e-05 0
8.3025e-05 3.5125e-05 0
8.22824e-05 3.68659e-05 0
8.1446e-05 3.57362e-05 0
8.05884e-05 3.71794e-05 0
7.53471e-05 4.77524e-05 0
7.38313e-05 4.73927e-05 0
7.39102e-05 4.61526e-05 0
7.9826e-05 3.58588e-05 0
7.88607e-05 3.76287e-05 0
7.81733e-05 3.57987e-05 0
8.16783e-05 3.84471e-05 0
8.07975e-05 4.04095e-05 0
7.52138e-05 4.04775e-05 0
7.67682e-05 4.17043e-05 0
7.49617e-05 4.21803e-05 0
7.52903e-05 3.84008e-05 0
7.38293e-05 3.93136e-05 0
[...]
CELL_DATA 58684
VECTORS velocity DOUBLE
74.1928 0.337127 0
86.2318 -7.75e-05 0
86.2048 8.20887e-05 0
86.2372 -0.00217689 0
86.2093 0.00229689 0
86.2429 -0.00237579 0
86.2154 0.00254415 0
77.8762 -0.00184796 0
77.8893 -0.0242168 0
77.9918 -0.00301521 0
78.1017 -0.00557937 0
78.1618 -0.408792 0
77.9213 -0.109725 0
78.241 -0.134747 0
77.9008 -0.185026 0
78.4356 -0.1709 0
77.8767 -0.112316 0
78.7892 -0.157219 0
77.9489 -0.317497 0
79.2924 -0.112229 0
77.8897 -0.115114 0
78.7596 -0.369182 0
85.2877 -2.17343 0
77.8608 0.0121539 0
77.8629 0.0514229 0
77.8603 0.0249441 0
77.8983 0.141776 0
77.889 0.0231395 0
77.8937 0.188376 0
77.9895 0.0491134 0
77.8865 0.145038 0
77.9459 0.032901 0
77.8493 0.144197 0
78.3113 0.162938 0
78.0229 1.13232 0
78.1681 0.0682187 0
77.8985 0.178426 0
78.3872 0.354569 0
86.2502 0.0010576 0
86.2555 -0.000214544 0
86.2649 -0.00593986 0
86.2676 -0.00230757 0
86.2783 -0.000525939 0
86.2867 -0.0055169 0
86.2896 -0.00699374 0
86.2935 -0.00257445 0
86.3023 -0.00039162 0
86.309 -0.00760937 0
86.3107 -0.00483074 0
86.3208 -0.00119151 0
86.3291 -0.00861767 0
86.331 -0.00878517 0
86.334 -0.00426088 0
86.3427 -0.000950335 0
86.3488 -0.00956307 0
86.3499 -0.0071069 0
86.3597 -0.00212524 0
86.3683 -0.0118164 0
86.3701 -0.0113871 0
86.3727 -0.0058485 0
86.3837 -0.000706803 0
86.3853 -0.0133803 0
86.3946 -0.00907571 0
86.4064 -0.000750037 0
86.4071 -0.0165626 0
86.4101 -0.0132473 0
86.4185 -0.0114603 0
86.4264 -0.0012471 0
86.4279 -0.0160227 0
86.436 -0.0121862 0
86.4463 -0.00225095 0
86.4467 -0.0182735 0
86.453 -0.0133433 0
86.4608 -0.0221825 0
86.4711 -0.00108922 0
86.4734 -0.0168667 0
86.4796 -0.0109213 0
86.4935 -0.00211981 0
86.4951 -0.0228756 0
86.5182 -0.0192074 0
86.4993 -0.0183361 0
86.5201 -0.00124607 0
86.5289 -0.0120775 0
86.5224 -0.0237605 0
86.5537 -0.0144748 0
86.548 -0.0193195 0
86.5439 -0.0269496 0
86.5565 -0.0319997 0
86.5807 -0.0206871 0
86.5953 -0.0293645 0
86.5707 -0.0247928 0
86.588 -0.0355677 0
86.6085 -0.0270806 0
86.6033 -0.0276983 0
86.6124 -0.0379563 0
86.6466 -0.0362496 0
86.6293 -0.0305564 0
86.6361 -0.0401725 0
86.6554 -0.047004 0
86.6634 -0.0356761 0
86.69 -0.0425825 0
86.6656 -0.0372971 0
86.6936 -0.0120364 0
86.694 -0.0476844 0
86.7152 -0.0455219 0
86.7059 -0.0485833 0
86.7191 -0.0144496 0
86.7216 -0.0521718 0
86.7387 -0.0569845 0
86.7607 -0.03278 0
86.7565 -0.0352684 0
86.7409 -0.0477281 0
86.7764 -0.0616462 0
86.7769 -0.0253219 0
86.8071 -0.056864 0
86.7942 -0.0368402 0
86.8329 -0.00307884 0
86.8182 -0.0646913 0
86.8339 -0.0723421 0
86.8671 -0.0650845 0
86.8885 -0.0490221 0
86.8416 -0.0390707 0
86.8765 -0.0742309 0
86.9152 -0.0500942 0
86.9087 -0.0777842 0
86.884 -0.027118 0
86.9223 -0.0707394 0
86.9386 -0.0266848 0
86.9356 -0.081916 0
86.9636 -0.0940403 0
86.9999 -0.0560084 0
86.992 -0.0777928 0
86.9656 -0.0362754 0
87.0327 -0.101709 0
86.9787 -0.0291215 0
87.011 -0.101054 0
87.0788 -0.114277 0
87.0925 -0.0805287 0
87.1099 -0.0981891 0
87.0665 -0.0958381 0
87.0957 -0.105007 0
87.0636 -0.0454919 0
87.1401 -0.121273 0
87.1659 -0.133383 0
87.1996 -0.0877576 0
87.1214 -0.0635766 0
87.1625 -0.114233 0
87.1835 -0.135095 0
87.1458 -0.0269067 0
87.2531 -0.145971 0
87.2657 -0.160579 0
87.3091 -0.0992632 0
87.2212 -0.0857994 0
87.281 -0.134421 0
87.3024 -0.162215 0
87.2439 -0.0288223 0
87.3208 -0.186906 0
87.371 -0.200702 0
87.3867 -0.142465 0
87.3823 -0.164282 0
87.4349 -0.151992 0
87.4138 -0.208552 0
87.4159 -0.0548073 0
87.4239 -0.196187 0
87.4985 -0.202014 0
87.4728 -0.0667841 0
87.5656 -0.240769 0
87.5933 -0.222945 0
87.5735 -0.141621 0
87.6386 -0.109534 0
87.569 -0.246138 0
87.6067 -0.27116 0
87.6099 -0.0555336 0
87.6808 -0.277259 0
87.7308 -0.285619 0
87.6518 -0.204954 0
87.717 -0.130456 0
87.7558 -0.170743 0
87.7615 -0.325862 0
87.8041 -0.112557 0
87.8284 -0.306047 0
87.8611 -0.301237 0
87.8848 -0.351974 0
87.8383 -0.00501313 0
87.9869 -0.352553 0
87.8728 -0.271995 0
87.9961 -0.247598 0
88.066 -0.289713 0
88.036 -0.39162 0
88.0942 -0.396271 0
87.9576 -0.089336 0
88.1333 -0.386043 0
88.1595 -0.445187 0
88.1737 -0.428487 0
88.2718 -0.100547 0
88.1587 -0.341403 0
88.3289 -0.494911 0
88.3822 -0.377035 0
88.3036 -0.317808 0
88.3905 -0.524348 0
88.3736 -0.516647 0
88.2593 -0.0897287 0
88.4798 -0.577144 0
88.5176 -0.54218 0
88.7031 -0.104793 0
88.6188 -0.59683 0
88.4626 -0.416316 0
88.7206 -0.382309 0
88.7844 -0.493819 0
88.6751 -0.54214 0
88.6989 -0.647584 0
88.762 -0.234885 0
88.8757 -0.62643 0
88.8281 -0.721232 0
89.0216 -0.733664 0
88.9831 -0.0110851 0
88.9764 -0.605212 0
89.0347 -0.759884 0
88.8758 -0.187994 0
89.0993 -0.800233 0
89.1967 -0.46132 0
89.1458 -0.836949 0
89.3648 -0.258895 0
89.3216 -0.721596 0
89.2849 -0.850132 0
89.2274 -0.131 0
89.4293 -0.877834 0
89.6159 -0.856771 0
89.4602 -0.730443 0
89.5072 -0.440252 0
89.6487 -0.985346 0
89.6638 -0.386257 0
89.8288 -0.0666749 0
89.5957 -0.77505 0
89.7688 -0.975855 0
89.8581 -1.04877 0
89.8934 -0.328711 0
90.01 -0.904875 0
90.1696 -0.991106 0
89.9745 -0.111876 0
90.322 -0.964186 0
90.2315 -1.0775 0
90.0928 -0.798301 0
90.1574 -0.385335 0
90.2739 -0.450453 0
90.392 -1.0837 0
90.3335 -0.00654004 0
90.5018 -1.15621 0
90.6417 -1.09641 0
90.5959 -1.15484 0
90.5818 -0.25146 0
90.7119 -0.940789 0
90.9687 -0.952432 0
90.5525 -0.00464162 0
91.0594 -1.13239 0
91.2455 -0.96112 0
90.8851 -0.696359 0
90.7133 -0.287821 0
91.2387 -1.0866 0
90.879 -0.356082 0
90.6929 -0.016662 0
91.1718 -0.729797 0
91.5097 -0.986478 0
91.6805 -0.919482 0
90.8699 -0.075045 0
91.6345 -0.625629 0
91.7718 -0.821997 0
90.7354 0.0314428 0
91.915 -0.809248 0
92.1079 -0.675125 0
91.728 -0.233972 0
90.4938 0.0100031 0
92.2698 -0.445319 0
91.4044 0.202935 0
91.6397 0.312368 0
92.1428 -0.29108 0
91.9204 -0.0258052 0
92.6082 -0.0477957 0
90.6185 0.376769 0
92.5918 -0.152904 0
92.1424 0.427257 0
92.7989 0.501897 0
90.5338 0.1096 0
92.7561 1.21348 0
92.5268 1.4468 0
89.159 0.199 0
92.9824 0.902011 0
92.8822 1.38672 0
90.5219 1.49158 0
90.2726 0.711852 0
91.8122 1.12878 0
92.7794 1.92544 0
89.4125 0.332671 0
92.2812 2.8216 0
92.9582 2.16815 0
92.9711 2.39742 0
88.6462 1.42404 0
91.3029 2.94812 0
92.3363 3.21209 0
88.6287 0.234728 0
92.149 3.71683 0
91.8008 3.59249 0
90.8264 5.22404 0
86.3358 0.397799 0
91.9656 4.92508 0
89.9723 3.55114 0
88.1003 1.57451 0
87.7104 3.00036 0
91.7295 5.43312 0
90.5906 5.87879 0
86.7775 0.611538 0
90.6606 6.70786 0
86.2225 -0.000661457 0
86.2281 0.000150642 0
86.2365 0.00533156 0
86.2392 0.00180419 0
86.2492 0.000533221 0
86.2572 0.00523481 0
86.2598 0.00590696 0
86.2641 0.00172596 0
86.2722 0.000458255 0
86.2787 0.00733482 0
86.2802 0.00449624 0
86.2899 0.00116047 0
86.2977 0.00808447 0
86.2995 0.00835493 0
86.3025 0.00405338 0
86.311 0.000930584 0
86.3169 0.00932753 0
86.3183 0.00673531 0
86.328 0.00210561 0
86.3364 0.0116899 0
86.3382 0.0112049 0
86.3499 0.0144267 0
86.3408 0.00569739 0
86.3584 0.00945696 0
86.3715 0.0147623 0
86.3625 0.00918004 0
86.3784 0.0135751 0
86.3868 0.0116114 0
86.3938 0.0183218 0
86.3832 0.00915407 0
86.4042 0.012329 0
86.4123 0.0203807 0
86.404 0.00972095 0
86.4295 0.0231444 0
86.4332 0.0205882 0
86.4392 0.0163204 0
86.4256 0.012066 0
86.4423 0.0173066 0
86.46 0.016803 0
86.4487 0.0111971 0
86.4766 0.0281767 0
86.4769 0.0106416 0
86.4881 0.0194927 0
86.4725 0.0147338 0
86.4924 0.0240934 0
86.5145 0.0273429 0
86.5239 0.0148108 0
86.5112 0.0250023 0
86.5335 0.02988 0
86.5369 0.0321649 0
86.5621 0.0167543 0
86.5515 0.0208844 0
86.5659 0.029583 0
86.5808 0.0413968 0
86.5898 0.0200625 0
86.5949 0.0335914 0
86.604 0.0433854 0
86.6196 0.0256226 0
86.5998 0.0306599 0
86.6273 0.0481119 0
86.6301 0.0454339 0
86.6403 0.0292233 0
86.652 0.0209539 0
86.6618 0.0423657 0
86.6026 0.0142475 0
86.6777 0.0491329 0
86.7109 0.0580236 0
86.694 0.0491814 0
86.6795 0.0297971 0
86.724 0.0583531 0
86.7312 0.0520476 0
86.751 0.02562 0
86.7142 0.0485596 0
86.7556 0.054593 0
86.7726 0.0632885 0
86.7221 0.0154741 0
86.761 0.0451952 0
86.8086 0.0728736 0
86.7703 0.0374363 0
86.82 0.0652102 0
86.8501 0.0773693 0
86.8258 0.0568867 0
86.8438 0.0233746 0
86.8605 0.0674976 0
86.8786 0.0796267 0
86.8586 0.0205855 0
86.9026 0.0872965 0
86.8697 0.0627943 0
86.9265 0.0731149 0
86.8859 0.0496886 0
86.9366 0.0943026 0
86.9968 0.114122 0
86.9545 0.0288034 0
86.9543 0.0779892 0
87.0221 0.121235 0
86.9994 0.0857586 0
86.9422 0.0353258 0
87.0382 0.112446 0
87.0609 0.118883 0
87.0195 0.0292888 0
87.0652 0.0538278 0
87.0938 0.104118 0
87.1111 0.138103 0
87.0404 0.0735066 0
87.1415 0.134894 0
87.1624 0.144021 0
87.1633 0.0494128 0
87.1417 0.0895816 0
87.2113 0.161358 0
87.2049 0.137576 0
87.1057 0.0458477 0
87.2302 0.154685 0
87.2793 0.165923 0
87.2521 0.0662458 0
87.2447 0.14172 0
87.3362 0.198729 0
87.3228 0.151745 0
87.1976 0.0482856 0
87.3602 0.185852 0
87.4283 0.227203 0
87.31 0.06549 0
87.4148 0.180527 0
87.3913 0.0842896 0
87.4567 0.190118 0
87.3698 0.106946 0
87.488 0.241285 0
87.5447 0.242313 0
87.4494 0.0670079 0
87.5356 0.236644 0
87.6122 0.273967 0
87.5678 0.0702649 0
87.5049 0.199113 0
87.6034 0.234663 0
87.6602 0.278394 0
87.5406 0.0423191 0
87.6722 0.254048 0
87.773 0.330633 0
87.7534 0.277764 0
87.6877 0.0839942 0
87.827 0.290877 0
87.6407 0.106651 0
87.6742 0.244398 0
87.8169 0.321616 0
87.9251 0.365948 0
87.9351 0.37513 0
87.6584 0.00621098 0
88.0334 0.427828 0
88.0453 0.416502 0
88.0713 0.369552 0
88.0064 0.181692 0
88.1131 0.198593 0
88.0857 0.413359 0
87.8556 0.112194 0
88.2089 0.467224 0
88.1998 0.458747 0
88.2078 0.412807 0
88.0987 0.119991 0
88.2899 0.460477 0
88.4142 0.575171 0
88.2735 0.215631 0
88.2166 0.228411 0
88.3744 0.465891 0
88.5408 0.599954 0
88.1353 0.141348 0
88.5803 0.634361 0
88.6206 0.617756 0
88.4353 0.121327 0
88.7637 0.708702 0
88.7978 0.680228 0
88.8717 0.587996 0
88.6497 0.258188 0
88.6155 0.292257 0
88.7833 0.657983 0
88.5166 0.187981 0
88.9518 0.785815 0
89.0072 0.742185 0
89.0105 0.685499 0
88.7433 0.104065 0
89.1853 0.808426 0
89.2042 0.826717 0
89.0446 0.464669 0
89.3065 0.651543 0
89.0639 0.376547 0
89.262 0.793127 0
88.9485 0.23933 0
89.4241 0.924911 0
89.4505 0.89441 0
88.9907 0.190755 0
89.5268 0.824799 0
89.7141 0.95169 0
89.6237 0.928995 0
89.5137 0.216852 0
89.931 0.996204 0
89.9769 1.06378 0
89.4609 0.642917 0
89.8733 0.788681 0
89.5271 0.392032 0
90.1802 1.12024 0
89.7138 0.121913 0
90.2474 1.08834 0
90.2438 1.03061 0
89.5251 0.0964477 0
90.1774 0.933632 0
90.5792 1.10338 0
90.6762 1.11316 0
90.1301 0.280896 0
90.7543 1.08589 0
90.805 1.15822 0
90.1013 0.705373 0
90.8217 0.762647 0
90.2977 0.271915 0
90.9786 1.15562 0
90.3273 0.100728 0
91.1325 1.07771 0
91.2266 1.06123 0
90.1477 0.0713756 0
91.0468 0.878041 0
91.5295 0.988058 0
91.699 0.922256 0
90.6019 0.177239 0
91.531 0.863012 0
91.8441 0.871539 0
91.144 0.747326 0
91.6363 0.430524 0
90.6932 0.110508 0
91.6073 0.779758 0
90.7124 0.0402651 0
92.1002 0.761839 0
92.1909 0.611136 0
90.6027 0.0392504 0
91.8948 0.296528 0
92.3496 0.322296 0
92.5437 0.184562 0
90.7261 -0.0989529 0
92.6375 -0.0224405 0
92.6865 -0.160823 0
90.8792 -0.27357 0
92.7024 -0.192038 0
91.8993 -0.646521 0
91.1482 -0.0938317 0
90.9507 0.000453423 0
92.8428 -0.488304 0
92.6022 -0.889263 0
93.0386 -1.06911 0
90.6167 -0.00638653 0
92.3152 -1.34248 0
93.0422 -1.81285 0
90.5793 -0.125767 0
92.145 -1.30911 0
93.0186 -2.35806 0
91.5889 -1.78017 0
90.5596 -0.664291 0
92.8261 -2.70981 0
92.6867 -3.00444 0
91.5422 -1.12478 0
90.9923 -3.16635 0
88.9576 -2.60953 0
92.3268 -3.04025 0
89.369 -0.410023 0
92.3109 -3.99831 0
89.732 7.30739 0
90.4657 6.53396 0
85.0677 1.93028 0
89.6277 7.26337 0
87.3886 6.64349 0
88.9666 7.89544 0
85.6591 0.758585 0
87.985 8.09693 0
86.8127 7.96655 0
84.4055 0.963505 0
86.8854 8.49427 0
92.2209 -4.41877 0
89.6097 -0.253705 0
91.9535 -4.76523 0
90.7122 -5.16213 0
90.1569 -4.44419 0
88.7216 -0.270472 0
90.9525 -5.75492 0
85.5844 7.75764 0
90.2974 -7.03376 0
88.4725 -1.40626 0
89.9741 -6.79832 0
89.1079 -7.76341 0
83.2492 2.36892 0
88.6704 -7.61767 0
89.8909 -4.25498 0
89.1639 -6.90351 0
87.3023 -5.10787 0
86.3622 -0.840653 0
88.2242 -7.00882 0
87.4302 -7.418 0
84.9583 8.18549 0
87.5022 -7.4304 0
87.1982 -0.456226 0
86.4706 -7.78031 0
85.9558 -8.4867 0
85.6808 -0.565434 0
84.8658 -8.62845 0
85.3753 -6.33434 0
83.507 -0.654807 0
83.8511 -8.77916 0
83.9267 -4.86914 0
85.643 -3.83722 0
84.398 -7.51724 0
83.2873 -7.86635 0
85.9569 4.40106 0
82.3396 0.530045 0
85.365 2.94259 0
84.0179 -0.0744261 0
82.7402 -8.53219 0
84.5823 7.75219 0
82.0674 0.384988 0
84.0107 6.59454 0
81.8754 -8.39481 0
83.5868 -1.71769 0
81.1691 -6.12676 0
84.0036 8.83468 0
80.9506 2.02557 0
83.9015 8.75911 0
81.6837 7.3005 0
81.2382 0.41312 0
82.3159 7.67839 0
81.7764 -6.37653 0
83.0982 -0.474407 0
81.0223 -8.52237 0
81.04 -8.28876 0
82.6887 8.24713 0
80.7666 7.85907 0
80.5462 0.0417051 0
81.8265 8.11551 0
79.9677 5.08208 0
80.5458 2.28814 0
80.0994 -8.46855 0
81.0175 -1.09848 0
80.4336 -8.34397 0
79.6393 8.31079 0
79.4756 -7.73662 0
80.1458 -1.07734 0
79.773 -3.39904 0
78.216 -7.42999 0
81.2445 -4.1097 0
78.0752 -7.18528 0
79.641 -0.290182 0
77.1616 -6.86419 0
79.3113 2.86468 0
79.9149 0.461238 0
79.2127 6.97747 0
79.3 0.116589 0
79.0078 8.18733 0
78.7216 7.68245 0
78.9802 0.185147 0
77.9612 6.72243 0
78.7575 0.133487 0
78.5466 -6.42313 0
79.6387 -0.575163 0
79.7706 6.04714 0
77.9151 0.736547 0
77.5162 6.31211 0
77.0465 -6.82466 0
79.752 -0.230442 0
75.4195 -5.83475 0
77.8922 -0.440934 0
76.239 -5.74272 0
78.5801 2.5491 0
77.8572 0.120355 0
79.2659 -5.22708 0
77.8594 -0.112948 0
75.5425 -5.40642 0
76.9236 5.69477 0
76.943 -4.26639 0
77.8794 -0.243237 0
75.8447 -4.6294 0
77.9433 3.14151 0
75.7966 1.99359 0
76.4234 4.92258 0
77.6549 -0.984657 0
75.6897 -5.13114 0
77.8244 0.402355 0
76.3454 6.64417 0
77.711 -2.37701 0
77.8589 -0.0842806 0
75.3587 -4.62832 0
76.0746 5.93592 0
77.8474 0.716637 0
76.0259 4.63842 0
75.7493 4.57846 0
77.8186 0.380715 0
74.9526 4.07664 0
74.5046 -4.15687 0
77.8479 -0.295123 0
74.2029 -4.1498 0
76.5737 -1.97713 0
77.859 -0.201029 0
73.5797 -2.8276 0
75.0129 5.07253 0
77.7734 0.620733 0
76.2521 3.24876 0
74.1878 -2.56822 0
77.7631 -0.31146 0
73.5426 -2.33975 0
73.8989 3.73162 0
77.7735 0.265374 0
74.2993 3.51566 0
74.5988 2.86775 0
77.8575 0.035045 0
73.7653 3.05509 0
74.8823 -1.51136 0
77.7122 -0.540785 0
74.1745 -1.33207 0
73.0002 -0.848521 0
77.0593 -0.923927 0
73.0505 -0.718658 0
76.7656 0.959131 0
77.7998 0.0777752 0
75.8669 2.43383 0
73.5451 2.45994 0
77.6727 0.0594271 0
73.1223 1.55409 0
77.4002 -0.235687 0
77.8442 -0.111989 0
73.0489 -0.236211 0
73.5732 -0.0924933 0
77.8191 -0.0659471 0
75.7826 0.307424 0
73.7392 0.526572 0
77.8305 -0.062083 0
77.14 -5.65687 0
77.9253 -0.432456 0
77.8472 0.13265 0
77.9757 6.88444 0
78.9166 -7.74141 0
81.9738 -0.94602 0
80.3769 0.996951 0
81.5893 8.62156 0
77.8018 0.279619 0
74.4615 4.85327 0
73.9407 -2.8368 0
77.8107 -0.201187 0
77.8765 -0.572614 0
77.5213 -3.66932 0
77.9419 0.801107 0
77.9092 0.199729 0
77.8118 -0.000564872 0
73.616 2.05278 0
79.2584 0.466068 0
78.3609 1.57546 0
78.6841 -1.37322 0
80.191 -0.691072 0
85.7706 -1.27243 0
85.3431 -8.47458 0
87.2382 8.09123 0
85.3046 0.469348 0
77.7269 1.66332 0
79.5562 8.00428 0
78.4842 -7.08393 0
79.2077 -2.31483 0
76.8734 -1.45858 0
74.5697 -0.221619 0
76.1104 5.83006 0
78.045 1.89072 0
77.8839 -1.78874 0
74.7309 -4.63329 0
91.7005 -5.4062 0
88.4046 -0.663405 0
87.9813 0.793295 0
92.1452 4.50229 0
77.937 -0.814528 0
77.8817 -0.044655 0
77.8709 0.148316 0
78.9093 0.756955 0
83.0398 0.737135 0
82.6687 4.10998 0
81.1351 -1.99075 0
84.2349 -1.74857 0
81.5852 4.90126 0
84.5172 8.31683 0
83.3451 -8.69467 0
82.4778 -1.92139 0
86.5413 1.61464 0
87.6263 5.0395 0
86.1868 -2.79677 0
87.3404 -0.0427291 0
90.5266 -0.252476 0
93.0008 -1.32038 0
92.8327 0.513178 0
89.722 0.0291224 0
90.6827 0.00267713 0
92.2344 0.592655 0
92.009 -0.576444 0
90.838 0.036603 0
78.9744 -1.44714 0
78.4234 -0.573418 0
78.3387 1.23688 0
79.1419 0.950435 0
78.1802 1.22568 0
77.8786 0.240582 0
77.8564 -0.106706 0
78.1066 -1.12644 0
89.4141 0.958038 0
90.6521 1.89178 0
89.7367 -1.15114 0
89.9407 -0.171636 0
75.9157 -0.958833 0
77.8379 -0.15531 0
77.4424 -0.439161 0
77.8537 -0.37447 0
77.8472 0.204932 0
77.8521 0.966733 0
91.3039 1.00622 0
90.4675 0.157897 0
90.6292 -0.00417121 0
91.0212 -1.0856 0
81.6007 -0.0406589 0
80.8388 -2.82756 0
81.9013 1.80673 0
80.6032 0.448479 0
77.771 4.04529 0
77.2609 7.32022 0
77.0102 -6.2622 0
78.2398 -3.22738 0
78.7382 -2.11102 0
77.4873 -2.22969 0
77.8601 4.63909 0
78.1721 2.22476 0
90.845 0.0476496 0
90.5819 0.142578 0
90.7597 -0.0491267 0
91.7364 0.1038 0
79.6852 -5.42681 0
80.7674 -5.26468 0
80.356 4.64388 0
80.8876 8.54118 0
79.027 -3.98186 0
80.1964 -2.31535 0
80.0292 3.1198 0
79.2024 1.53687 0
90.5094 1.1722 0
89.9519 0.14416 0
90.2011 -0.0110329 0
90.0753 -1.05031 0
77.2706 1.01374 0
77.8397 0.0296342 0
90.6968 -0.0590261 0
91.3492 -0.363314 0
91.0582 0.253614 0
90.521 0.0391011 0
78.7805 -0.956257 0
78.3117 -1.33185 0
79.0838 1.74294 0
78.1973 0.735491 0
77.8873 -0.146674 0
78.1195 -0.698355 0
77.9492 0.315088 0
77.8625 0.136238 0
74.0515 1.71277 0
76.9075 1.52327 0
86.9473 -3.16132 0
90.2903 -6.37744 0
91.2538 5.82956 0
86.6578 2.28166 0
76.751 -2.31187 0
74.6823 -2.89855 0
89.2493 0.158935 0
89.5181 0.892779 0
88.5233 0.0746058 0
89.1507 0.846098 0
89.5338 -0.870027 0
89.384 -0.142776 0
88.9039 -0.704658 0
88.8352 -0.0138152 0
90.3704 -0.219602 0
90.4779 -0.632898 0
90.3276 0.39837 0
90.082 0.00744195 0
77.8487 0.179108 0
77.6571 0.538596 0
76.4066 0.452163 0
74.1454 0.84534 0
77.776 -0.2493 0
77.8337 -0.169585 0
77.3462 0.274569 0
77.2715 -0.749577 0
92.8258 -2.76289 0
89.6629 -1.75892 0
90.6479 2.2339 0
92.9852 1.62073 0
78.006 -0.0634462 0
78.1017 -0.365347 0
77.886 0.0525296 0
78.2745 0.260819 0
89.7496 -0.208807 0
89.7634 -0.540842 0
89.795 0.362241 0
89.391 0.116333 0
88.3288 0.165179 0
88.5145 0.525545 0
88.5305 -0.612667 0
88.4259 -0.148359 0
78.4349 -0.898482 0
79.3329 -2.13422 0
78.7807 1.61248 0
78.4125 1.2723 0
79.0981 2.88075 0
77.5377 1.85001 0
78.0788 -1.92204 0
78.7274 -2.79252 0
91.209 -0.537425 0
92.161 0.309061 0
92.3328 -0.30245 0
91.6323 0.576204 0
77.6568 -1.14776 0
77.7722 -1.36422 0
77.8018 1.08188 0
77.2977 1.30547 0
88.3323 0.540892 0
88.0374 0.160427 0
88.1013 -0.101279 0
88.2711 -0.460714 0
85.054 4.27522 0
87.0536 7.14504 0
86.5432 -8.41354 0
86.099 -3.35324 0
75.1593 -3.42205 0
77.4869 -3.51261 0
84.6785 -3.06755 0
85.3197 -1.09962 0
83.6798 0.45435 0
86.991 3.11724 0
74.7481 4.62274 0
76.6639 2.73097 0
89.0857 -0.0516859 0
89.2566 -0.550016 0
89.1392 0.363764 0
89.0485 0.0994183 0
88.8415 -0.371482 0
88.6207 -1.52123 0
89.1756 2.09803 0
88.1958 0.273545 0
83.0513 1.39792 0
81.3158 0.350842 0
82.4321 -0.336727 0
83.0877 -3.11473 0
91.0159 0.328762 0
91.2933 0.872482 0
91.4536 -0.949792 0
91.361 -0.059531 0
82.0839 -3.83413 0
83.1768 -1.83963 0
82.397 2.71342 0
84.9376 5.99628 0
87.9125 0.325127 0
87.7868 0.0614194 0
87.9728 -0.0989233 0
87.8977 -0.337412 0
88.5375 -0.185108 0
88.713 -0.00861136 0
88.6839 0.102824 0
88.4989 0.432005 0
79.8635 0.497189 0
79.6226 1.3036 0
79.8797 -1.1471 0
80.7164 -0.318757 0
81.3799 2.82794 0
79.7799 1.94929 0
79.1638 -2.83452 0
78.3404 -2.86015 0
90.565 -0.484832 0
90.3126 -0.280105 0
90.135 0.377622 0
91.0724 0.629981 0
79.7627 3.84651 0
80.272 2.57029 0
79.245 -0.823908 0
79.0777 -0.292987 0
78.921 0.265333 0
79.6282 0.888754 0
76.527 -0.873211 0
77.501 -1.3464 0
92.1887 -3.67158 0
89.7148 -2.07853 0
89.1729 3.76727 0
92.5793 3.73506 0
77.8757 -0.86475 0
77.8812 -0.142379 0
77.8199 0.198883 0
77.9487 0.84514 0
78.207 0.0874016 0
78.2279 0.624869 0
78.3761 -0.343624 0
78.5204 -0.020348 0
75.3833 -0.268092 0
73.0649 0.151418 0
85.0591 3.22805 0
89.1286 2.98793 0
87.8217 -2.52283 0
88.4218 -4.98978 0
77.5446 2.06478 0
77.1099 1.15093 0
77.8571 -0.0251235 0
77.6474 -0.0499481 0
80.3064 6.8363 0
78.2319 4.05538 0
79.9594 -4.29861 0
78.9677 -8.10534 0
77.3516 0.784274 0
77.7631 0.424033 0
90.3616 0.52986 0
90.706 1.15444 0
90.3946 -1.05248 0
90.3466 -0.206119 0
88.1182 -0.119932 0
88.342 -0.0815138 0
88.3122 0.0697511 0
88.1947 0.398857 0
92.7316 0.430706 0
91.5816 1.38895 0
91.63 -0.556485 0
92.867 -0.69162 0
77.4588 0.107574 0