# vtk DataFile Version 3.0
Unstructured Grid for Triangles
ASCII
DATASET UNSTRUCTURED_GRID
POINTS 29612 DOUBLE
-2.72397e-05 1.23686e-06 0
-2.95789e-05 9.5838e-07 0
-2.77865e-05 -3.1235e-07 0
0.0002024 5e-05 0
0.000203975 4.9875e-05 0
0.000205 5e-05 0
0.000203975 -4.9875e-05 0
0.0002024 -5e-05 0
0.000205 -5e-05 0
0.00020295 4.975e-05 0
0.00020295 -4.975e-05 0
0.000201925 4.9625e-05 0
0.000201925 -4.9625e-05 0
-5.29747e-05 -4.79887e-05 0
-5.5e-05 -5e-05 0
-5.24e-05 -5e-05 0
-5.05983e-05 -4.84325e-05 0
-4.98e-05 -5e-05 0
-4.72e-05 -5e-05 0
-4.83864e-05 -4.87761e-05 0
-4.46e-05 -5e-05 0
-4.59e-05 -4.84239e-05 0
-4.29453e-05 -4.24878e-05 0
-4.47486e-05 -4.20717e-05 0
-4.41829e-05 -4.36609e-05 0
-5.12578e-05 -4.62101e-05 0
-4.93077e-05 -4.53594e-05 0
-5.0706e-05 -4.39006e-05 0
-4.19243e-05 -4.77545e-05 0
-4.40307e-05 -4.71837e-05 0
-4.3691e-05 -4.86724e-05 0
-5.16129e-05 -4.20948e-05 0
-4.95355e-05 -4.15432e-05 0
-5.11646e-05 -4.0128e-05 0
-3.94697e-05 -4.81197e-05 0
-4.06302e-05 -4.55143e-05 0
-5.37257e-05 -3.88197e-05 0
-5.31099e-05 -4.07297e-05 0
-5.23982e-05 -3.88328e-05 0
-3.70063e-05 -4.72956e-05 0
-3.68e-05 -5e-05 0
-3.5308e-05 -4.85302e-05 0
-5.072e-05 -3.7867e-05 0
-4.85506e-05 -3.83975e-05 0
-4.90949e-05 -3.59622e-05 0
-3.37127e-05 -4.84331e-05 0
-3.16e-05 -5e-05 0
-3.26495e-05 -4.7415e-05 0
-5.5e-05 -3.5e-05 0
-5.31201e-05 -3.70361e-05 0
-5.28367e-05 -3.46817e-05 0
-3.63898e-05 -4.48809e-05 0
-3.83315e-05 -4.60336e-05 0
-3.26269e-06 -4.15503e-05 0
-5.99662e-06 -4.09556e-05 0
-5.46944e-06 -4.29488e-05 0
-5.29747e-05 4.79887e-05 0
-5.5e-05 5e-05 0
-5.5e-05 4.75e-05 0
-5.5e-05 4.5e-05 0
-5.34834e-05 4.29171e-05 0
-5.26943e-05 4.42611e-05 0
-5.34026e-05 4.60176e-05 0
-5.31099e-05 4.07297e-05 0
-5.11672e-05 4.01178e-05 0
-5.16129e-05 4.20948e-05 0
-5.24e-05 5e-05 0
-5.05983e-05 4.84325e-05 0
-5.31201e-05 3.70361e-05 0
-5.072e-05 3.7867e-05 0
-5.23982e-05 3.88328e-05 0
-4.8341e-05 4.69132e-05 0
-4.83679e-05 4.87539e-05 0
-5.28367e-05 3.46817e-05 0
-5.5e-05 3.25e-05 0
-5.25657e-05 3.28474e-05 0
-4.98e-05 5e-05 0
-5.30382e-05 3.125e-05 0
-4.19243e-05 4.77545e-05 0
-4.40015e-05 4.7335e-05 0
-4.25917e-05 4.63678e-05 0
-4.35138e-05 2.62661e-05 0
-4.14982e-05 2.74462e-05 0
-4.35654e-05 2.85217e-05 0
-4.59e-05 4.84239e-05 0
-4.36852e-05 4.87027e-05 0
-4.46e-05 5e-05 0
-5.33308e-05 2.92503e-05 0
-5.5e-05 2.75e-05 0
-5.23377e-05 2.76953e-05 0
-4.25282e-05 4.46352e-05 0
-4.09368e-05 4.35728e-05 0
-4.06302e-05 4.55143e-05 0
0.0002009 4.95e-05 0
0.0001998 5e-05 0
0.000199875 4.9375e-05 0
0.00019885 4.925e-05 0
0.0001972 5e-05 0
0.000197825 4.9125e-05 0
0.0001968 4.9e-05 0
0.000195775 4.8875e-05 0
0.0001946 5e-05 0
0.00019475 4.875e-05 0
0.000193725 4.8625e-05 0
0.000192 5e-05 0
0.0001927 4.85e-05 0
0.000191675 4.8375e-05 0
0.00019065 4.825e-05 0
0.0001894 5e-05 0
0.000189625 4.8125e-05 0
0.0001886 4.8e-05 0
0.0001868 5e-05 0
0.000187575 4.7875e-05 0
0.00018655 4.775e-05 0
0.000185515 4.8575e-05 0
0.0001842 5e-05 0
0.0001845 4.75e-05 0
0.000185525 4.7625e-05 0
0.000182564 4.829e-05 0
0.0001816 5e-05 0
0.00018245 4.725e-05 0
0.000183475 4.7375e-05 0
0.000181425 4.7125e-05 0
0.000180295 4.82657e-05 0
0.000179 5e-05 0
0.000179375 4.6875e-05 0
0.0001804 4.7e-05 0
0.000178168 4.80619e-05 0
0.0001764 5e-05 0
0.000177325 4.6625e-05 0
0.00017835 4.675e-05 0
0.000176428 4.76631e-05 0
0.0001763 4.65e-05 0
0.0001738 5e-05 0
0.0001751 4.84164e-05 0
0.000175275 4.6375e-05 0
0.000174025 4.75632e-05 0
0.0001712 5e-05 0
0.000172615 4.78449e-05 0
0.0001722 4.6e-05 0
0.000173225 4.6125e-05 0
0.00017015 4.575e-05 0
0.000171243 4.7381e-05 0
0.000169554 4.79999e-05 0
0.0001686 5e-05 0
0.000167507 4.79751e-05 0
0.000168498 4.64861e-05 0
0.000166 5e-05 0
0.00016558 4.71459e-05 0
0.000167135 4.62887e-05 0
0.0001681 4.55e-05 0
0.00016605 4.525e-05 0
0.000167075 4.5375e-05 0
0.000164059 4.61599e-05 0
0.00016394 4.79552e-05 0
0.000162881 4.6615e-05 0
0.000162975 4.4875e-05 0
0.000165025 4.5125e-05 0
0.000164 4.5e-05 0
0.000161754 4.58641e-05 0
0.000161722 4.78101e-05 0
0.000159956 4.58294e-05 0
0.000160925 4.4625e-05 0
0.00016195 4.475e-05 0
0.000157667 4.60322e-05 0
0.000158875 4.4375e-05 0
0.000159194 4.80155e-05 0
0.0001599 4.45e-05 0
0.00015785 4.425e-05 0
0.000155808 4.56757e-05 0
0.000155647 4.76701e-05 0
0.000154059 4.66642e-05 0
0.000153756 4.50083e-05 0
0.000154839 4.50446e-05 0
0.000156825 4.4125e-05 0
0.000151954 4.80508e-05 0
0.000154052 4.8477e-05 0
0.000153 5e-05 0
0.000154775 4.3875e-05 0
0.000152142 4.56625e-05 0
0.000152821 4.45753e-05 0
0.00015375 4.375e-05 0
0.0001504 5e-05 0
0.000149644 4.85168e-05 0
0.000151787 4.43178e-05 0
0.000152725 4.3625e-05 0
0.000150675 4.3375e-05 0
0.0001517 4.35e-05 0
0.000148119 4.50887e-05 0
0.000148072 4.75757e-05 0
0.000146584 4.63516e-05 0
0.000150008 4.6396e-05 0
0.000149351 4.4543e-05 0
0.00015061 4.46252e-05 0
0.0001476 4.3e-05 0
0.000148625 4.3125e-05 0
0.000146492 4.82975e-05 0
0.000144888 4.73562e-05 0
0.000146676 4.44259e-05 0
0.000145255 4.53656e-05 0
0.000145652 4.38669e-05 0
0.000141401 4.79821e-05 0
0.0001426 5e-05 0
0.00014 5e-05 0
0.000144374 4.38862e-05 0
0.00014555 4.275e-05 0
0.0001435 4.25e-05 0
0.000144525 4.2625e-05 0
0.000142746 4.38121e-05 0
0.000141288 4.43191e-05 0
0.000141707 4.32778e-05 0
0.00013921 4.38992e-05 0
0.000140355 4.5932e-05 0
0.000138302 4.5922e-05 0
0.000142912 4.58869e-05 0
0.000140592 4.30037e-05 0
0.00014145 4.225e-05 0
0.000136458 4.5869e-05 0
0.000137106 4.4063e-05 0
0.0001394 4.2e-05 0
0.000138259 4.28915e-05 0
0.000137484 4.77094e-05 0
0.000139166 4.78902e-05 0
0.00013586 4.78984e-05 0
0.000133449 4.78649e-05 0
0.000134717 4.61848e-05 0
0.000137256 4.25134e-05 0
0.000135323 4.24541e-05 0
0.000136325 4.1625e-05 0
0.000136122 4.2876e-05 0
0.000131206 4.47284e-05 0
0.000133168 4.56738e-05 0
0.000131773 4.65243e-05 0
0.000134756 4.40343e-05 0
0.000132747 4.36463e-05 0
0.000133483 4.26786e-05 0
0.000131081 4.1867e-05 0
0.000132382 4.22815e-05 0
0.000131507 4.3122e-05 0
0.000131059 4.80123e-05 0
0.00013325 4.125e-05 0
0.00012915 4.075e-05 0
0.00012982 4.18199e-05 0
0.000128915 4.26216e-05 0
0.000126366 4.47574e-05 0
0.000127331 4.30908e-05 0
0.000128781 4.44872e-05 0
0.000125336 4.28376e-05 0
0.000130218 4.31077e-05 0
0.000127894 4.16344e-05 0
0.000124774 4.69608e-05 0
0.000127668 4.64148e-05 0
0.000126591 4.8331e-05 0
0.000126722 4.18415e-05 0
0.000125768 4.11931e-05 0
0.000124326 4.13546e-05 0
0.00012505 4.025e-05 0
0.000122408 4.50118e-05 0
0.000120276 4.47432e-05 0
0.00012139 4.32235e-05 0
0.000124336 4.44132e-05 0
0.000123056 4.27595e-05 0
0.000122977 4.09049e-05 0
0.00012185 4.69217e-05 0
0.000122676 4.85947e-05 0
0.000120525 4.86094e-05 0
0.000121479 4.13153e-05 0
0.000119547 4.24221e-05 0
0.000120249 4.07448e-05 0
0.000119925 3.9625e-05 0
0.000119346 4.06114e-05 0
0.000117479 4.47279e-05 0
0.000114726 4.45259e-05 0
0.00011571 4.27814e-05 0
0.000119443 4.66611e-05 0
0.000117447 4.21596e-05 0
0.000118421 4.0752e-05 0
0.000117409 4.04437e-05 0
0.000116775 4.70073e-05 0
0.0001179 4.855e-05 0
0.000115473 4.84802e-05 0
0.00011685 3.925e-05 0
0.000117875 3.9375e-05 0
0.000115454 4.00551e-05 0
0.0001148 3.9e-05 0
0.000115825 3.9125e-05 0
0.000111704 4.23398e-05 0
0.000113786 4.26731e-05 0
0.000112589 4.43871e-05 0
0.000113234 4.06671e-05 0
0.000114754 4.13371e-05 0
0.0001106 4.42326e-05 0
0.000109703 4.24261e-05 0
0.00011275 3.875e-05 0
0.000113775 3.8875e-05 0
0.000110211 4.80875e-05 0
0.000108244 4.71951e-05 0
0.000109312 4.58413e-05 0
0.000111755 3.99116e-05 0
0.00010944 3.92972e-05 0
0.000110415 4.05876e-05 0
0.000108839 4.07536e-05 0
0.000106472 4.76905e-05 0
0.000107274 4.57868e-05 0
0.000108011 3.92415e-05 0
0.000106885 4.04365e-05 0
0.000106625 3.88708e-05 0
0.000105286 4.19254e-05 0
0.000105055 3.95469e-05 0
0.000104215 4.39764e-05 0
0.000106346 4.40629e-05 0
0.000100945 4.51249e-05 0
0.000102825 4.5614e-05 0
0.000101189 4.68452e-05 0
0.000107625 3.8125e-05 0
0.000105575 3.7875e-05 0
0.0001066 3.8e-05 0
0.000103352 4.76905e-05 0
0.000101803 4.8465e-05 0
0.000103685 3.89398e-05 0
0.00010245 3.8825e-05 0
0.000103525 3.7625e-05 0
0.000101092 3.99779e-05 0
0.000101267 3.82619e-05 0
0.000101382 4.2025e-05 0
0.000103187 4.05286e-05 0
0.000103359 4.24605e-05 0
9.87383e-05 4.5447e-05 0
9.99411e-05 4.35161e-05 0
9.744e-05 4.33145e-05 0
0.00010045 3.725e-05 0
0.000101475 3.7375e-05 0
9.70845e-05 4.65215e-05 0
9.52614e-05 4.67664e-05 0
9.61768e-05 4.49944e-05 0
9.9729e-05 3.87704e-05 0
9.78901e-05 3.9598e-05 0
9.85823e-05 3.81492e-05 0
9.62289e-05 3.93709e-05 0
9.74259e-05 3.81279e-05 0
9.7375e-05 3.6875e-05 0
9.63045e-05 3.76631e-05 0
9.58e-05 5e-05 0
9.32e-05 5e-05 0
9.47542e-05 4.8457e-05 0
9.49675e-05 3.85246e-05 0
9.36214e-05 3.89472e-05 0
9.40006e-05 3.74906e-05 0
9.66411e-05 4.12573e-05 0
9.44241e-05 4.07079e-05 0
9.03569e-05 4.24993e-05 0
9.21701e-05 4.02409e-05 0
9.27439e-05 4.27744e-05 0
8.89795e-05 4.09067e-05 0
9.03071e-05 4.0248e-05 0
9.25447e-05 3.77721e-05 0
9.3275e-05 3.6375e-05 0
9.07708e-05 3.87127e-05 0
9.11303e-05 3.70839e-05 0
9.11933e-05 4.55145e-05 0
9.30678e-05 4.73279e-05 0
9.11886e-05 4.82603e-05 0
8.87724e-05 3.88076e-05 0
8.99595e-05 3.75116e-05 0
9.02e-05 3.6e-05 0
8.89241e-05 3.6954e-05 0
8.36977e-05 4.59472e-05 0
8.36223e-05 4.83578e-05 0
8.20467e-05 4.74142e-05 0
8.71227e-05 4.03557e-05 0
8.61e-05 3.55e-05 0
8.68368e-05 3.65714e-05 0
8.5484e-05 3.6588e-05 0
8.47735e-05 4.02845e-05 0
8.23121e-05 4.21599e-05 0
8.26582e-05 3.98147e-05 0
8.46943e-05 4.2454e-05 0
8.38832e-05 3.78613e-05 0
8.35569e-05 3.63808e-05 0
8.44098e-05 3.6291e-05 0
8.5075e-05 3.5375e-05 0
8.51465e-05 4.77163e-05 0
8.3025e-05 3.5125e-05 0
8.22824e-05 3.68659e-05 0
8.1446e-05 3.57362e-05 0
8.05884e-05 3.71794e-05 0
7.53471e-05 4.77524e-05 0
7.38313e-05 4.73927e-05 0
7.39102e-05 4.61526e-05 0
7.9826e-05 3.58588e-05 0
7.88607e-05 3.76287e-05 0
7.81733e-05 3.57987e-05 0
8.16783e-05 3.84471e-05 0
8.07975e-05 4.04095e-05 0
7.52138e-05 4.04775e-05 0
7.67682e-05 4.17043e-05 0
7.49617e-05 4.21803e-05 0
7.52903e-05 3.84008e-05 0
7.38293e-05 3.93136e-05 0
[...]
CELL_DATA 58684
VECTORS velocity DOUBLE
74.0038 0.337201 0
84.9845 -0.000181722 0
84.9577 0.000173358 0
84.989 -0.00170151 0
84.9612 0.00176323 0
84.9951 -0.00211156 0
84.9675 0.00221589 0
77.8596 -0.00296783 0
77.865 -0.0233869 0
77.9384 -0.0041642 0
78.0291 -0.00713034 0
78.0768 -0.407107 0
77.8836 -0.10976 0
78.1491 -0.134174 0
77.8675 -0.185624 0
78.323 -0.172034 0
77.8597 -0.111496 0
78.6458 -0.15671 0
77.9011 -0.317228 0
79.1195 -0.113882 0
77.8741 -0.113497 0
78.6204 -0.36733 0
84.9185 -2.17025 0
77.8545 0.0115887 0
77.8501 0.0512073 0
77.8545 0.0249717 0
77.8706 0.140586 0
77.8646 0.0224201 0
77.8704 0.188619 0
77.9377 0.0493741 0
77.8701 0.14466 0
77.9029 0.0320392 0
77.8312 0.145005 0
78.2112 0.163472 0
77.9308 1.12907 0
78.0859 0.0675281 0
77.883 0.176183 0
78.2779 0.354312 0
85.0016 0.00039672 0
85.0062 -0.000360788 0
85.0158 -0.00518296 0
85.0193 -0.00276869 0
85.0281 -0.000818554 0
85.0363 -0.00512548 0
85.0397 -0.00654248 0
85.0438 -0.00271806 0
85.0515 -0.000478178 0
85.0587 -0.00719135 0
85.0611 -0.00489936 0
85.0697 -0.00119655 0
85.0784 -0.00810928 0
85.0809 -0.00834114 0
85.0842 -0.00424653 0
85.0921 -0.000794366 0
85.099 -0.00897468 0
85.1009 -0.00674345 0
85.1097 -0.00178343 0
85.1192 -0.0110634 0
85.1217 -0.010768 0
85.1246 -0.0056614 0
85.135 -0.000498081 0
85.1376 -0.0123036 0
85.1476 -0.00849078 0
85.16 -0.000289838 0
85.161 -0.0151956 0
85.1648 -0.0122933 0
85.173 -0.0101936 0
85.1819 -0.000738303 0
85.1845 -0.0147965 0
85.1926 -0.0107403 0
85.204 -0.00162718 0
85.2055 -0.0169595 0
85.2121 -0.0119759 0
85.2211 -0.0205441 0
85.2324 -0.000553635 0
85.2357 -0.0155353 0
85.2428 -0.0101326 0
85.2587 -0.00130397 0
85.2608 -0.0209141 0
85.2874 -0.0170472 0
85.2656 -0.0166233 0
85.2903 -0.000444077 0
85.3014 -0.0115716 0
85.2931 -0.021884 0
85.3306 -0.0135286 0
85.3228 -0.0175261 0
85.3169 -0.0244702 0
85.3318 -0.0294699 0
85.3628 -0.018789 0
85.3786 -0.0265181 0
85.3499 -0.0222687 0
85.3696 -0.0327619 0
85.396 -0.025239 0
85.3896 -0.0258164 0
85.3991 -0.0350694 0
85.4402 -0.0331419 0
85.4222 -0.0293576 0
85.4279 -0.0374413 0
85.4516 -0.0444381 0
85.4643 -0.0342827 0
85.4974 -0.0410785 0
85.4651 -0.0344531 0
85.5044 -0.0121411 0
85.4998 -0.0451225 0
85.5267 -0.0430138 0
85.5149 -0.0461997 0
85.5378 -0.0147431 0
85.5335 -0.049649 0
85.5538 -0.0545726 0
85.5892 -0.0315829 0
85.5821 -0.0339952 0
85.5614 -0.046458 0
85.6031 -0.0598792 0
85.611 -0.0250659 0
85.6433 -0.0551806 0
85.6308 -0.0358894 0
85.6863 -0.00169926 0
85.6545 -0.0623256 0
85.6743 -0.0709029 0
85.718 -0.0632985 0
85.7503 -0.0479608 0
85.6946 -0.0393129 0
85.7289 -0.0727275 0
85.7859 -0.0490713 0
85.771 -0.0768219 0
85.7508 -0.0264447 0
85.7882 -0.069188 0
85.8223 -0.0248192 0
85.8053 -0.0817595 0
85.8403 -0.0949868 0
85.8978 -0.0568126 0
85.8803 -0.0775358 0
85.8577 -0.0356576 0
85.9304 -0.103588 0
85.8754 -0.0281795 0
85.9011 -0.102342 0
85.9878 -0.115774 0
86.0133 -0.0809801 0
86.0359 -0.10187 0
85.9777 -0.0977771 0
86.0118 -0.106054 0
85.988 -0.0482798 0
86.0676 -0.123726 0
86.0983 -0.13544 0
86.1539 -0.0898741 0
86.0589 -0.0646459 0
86.0981 -0.11613 0
86.1242 -0.139333 0
86.0957 -0.0267961 0
86.2126 -0.149014 0
86.2268 -0.165094 0
86.2942 -0.100932 0
86.1865 -0.090844 0
86.2503 -0.137399 0
86.2759 -0.167113 0
86.2223 -0.0283415 0
86.2964 -0.193149 0
86.3591 -0.207612 0
86.3909 -0.148252 0
86.3783 -0.169857 0
86.4513 -0.157709 0
86.4136 -0.215373 0
86.4399 -0.0558535 0
86.4279 -0.201594 0
86.521 -0.20696 0
86.5085 -0.0681206 0
86.6029 -0.248049 0
86.6397 -0.22938 0
86.623 -0.143712 0
86.7104 -0.112215 0
86.6054 -0.252354 0
86.6502 -0.279218 0
86.6782 -0.0571209 0
86.7428 -0.282968 0
86.8042 -0.292815 0
86.7155 -0.210076 0
86.8008 -0.131004 0
86.8471 -0.17652 0
86.8377 -0.33465 0
86.9097 -0.114328 0
86.9206 -0.312051 0
86.9612 -0.30691 0
86.9874 -0.359606 0
86.9543 -0.00319083 0
87.108 -0.359872 0
86.9794 -0.277047 0
87.1288 -0.251102 0
87.2107 -0.294534 0
87.1628 -0.398331 0
87.2328 -0.403742 0
87.0922 -0.0904555 0
87.2796 -0.391807 0
87.3082 -0.453397 0
87.3253 -0.436838 0
87.4599 -0.102076 0
87.3142 -0.347851 0
87.5015 -0.502845 0
87.5726 -0.384205 0
87.4851 -0.32302 0
87.5743 -0.53428 0
87.5534 -0.525581 0
87.443 -0.0905576 0
87.676 -0.587908 0
87.7189 -0.551 0
87.9488 -0.104875 0
87.8347 -0.60837 0
87.6618 -0.422423 0
87.9583 -0.388446 0
88.0275 -0.502623 0
87.9003 -0.552943 0
87.9236 -0.658264 0
88.0129 -0.238924 0
88.1229 -0.634788 0
88.0682 -0.734061 0
88.2845 -0.744806 0
88.2639 -0.00954232 0
88.2397 -0.616591 0
88.3006 -0.772319 0
88.142 -0.191983 0
88.3718 -0.813864 0
88.4885 -0.466941 0
88.4218 -0.851609 0
88.6809 -0.260879 0
88.6196 -0.730411 0
88.5779 -0.863016 0
88.5335 -0.134207 0
88.735 -0.890071 0
88.9425 -0.867101 0
88.776 -0.742244 0
88.8333 -0.445 0
88.9768 -0.999363 0
89.0085 -0.390181 0
89.1956 -0.0670913 0
88.9232 -0.783263 0
89.109 -0.98686 0
89.2049 -1.06264 0
89.2606 -0.330256 0
89.373 -0.912597 0
89.5447 -0.997945 0
89.3547 -0.113312 0
89.7102 -0.967905 0
89.6116 -1.0856 0
89.4662 -0.804915 0
89.547 -0.386574 0
89.6694 -0.450564 0
89.7855 -1.0882 0
89.749 -0.00517183 0
89.9029 -1.16154 0
90.0533 -1.0965 0
90.0043 -1.1576 0
90.0109 -0.248445 0
90.13 -0.939245 0
90.4031 -0.943835 0
89.993 -0.0033065 0
90.4976 -1.12545 0
90.6953 -0.948334 0
90.3171 -0.689492 0
90.1487 -0.28336 0
90.6875 -1.07433 0
90.3202 -0.348838 0
90.1567 -0.0150127 0
90.6218 -0.715358 0
90.9722 -0.966477 0
91.1501 -0.896421 0
90.3345 -0.067567 0
91.1066 -0.602161 0
91.2461 -0.795441 0
90.2134 0.0357021 0
91.3952 -0.777931 0
91.5942 -0.639317 0
91.2085 -0.207862 0
89.9906 0.011659 0
91.7618 -0.403568 0
90.8936 0.224464 0
91.1337 0.338573 0
91.6339 -0.252391 0
91.4105 0.0084616 0
92.1088 -0.000490108 0
90.1224 0.388071 0
92.0917 -0.105136 0
91.6433 0.466939 0
92.3054 0.555262 0
90.0339 0.114 0
92.2666 1.26357 0
92.0394 1.49285 0
88.7003 0.199927 0
92.4914 0.95819 0
92.3937 1.43664 0
90.0488 1.51092 0
89.791 0.722544 0
91.3236 1.16153 0
92.2943 1.97165 0
88.9499 0.335001 0
91.8042 2.86193 0
92.4734 2.2214 0
92.487 2.44865 0
88.2057 1.42957 0
90.836 2.97918 0
91.8615 3.25181 0
88.1857 0.236607 0
91.6774 3.75352 0
91.333 3.62086 0
90.3762 5.24099 0
85.9412 0.39718 0
91.5012 4.95191 0
89.5247 3.56896 0
87.6716 1.57796 0
87.2966 3.00303 0
91.2703 5.45545 0
90.1458 5.89036 0
86.3761 0.612161 0
90.2144 6.7174 0
84.9737 -0.000102437 0
84.9786 0.000313148 0
84.9873 0.00467538 0
84.9907 0.00226274 0
84.9988 0.000816713 0
85.0068 0.0048802 0
85.0099 0.00563134 0
85.0142 0.00217036 0
85.0214 0.000531535 0
85.0284 0.00686016 0
85.0307 0.0046151 0
85.0389 0.0011705 0
85.0472 0.0076034 0
85.0497 0.00793818 0
85.0529 0.00404717 0
85.0607 0.000781575 0
85.0674 0.00877313 0
85.0695 0.00645214 0
85.0783 0.00176471 0
85.0876 0.0110134 0
85.0901 0.0106358 0
85.1024 0.0132854 0
85.0931 0.00552537 0
85.1116 0.00872461 0
85.125 0.0134919 0
85.1159 0.00861995 0
85.1334 0.0126285 0
85.1417 0.0103466 0
85.1499 0.0169091 0
85.1383 0.00874442 0
85.1611 0.0108764 0
85.1706 0.0188572 0
85.1615 0.00919583 0
85.19 0.0214319 0
85.1942 0.0187757 0
85.2012 0.0147598 0
85.1856 0.0113578 0
85.2049 0.0158985 0
85.2247 0.0147488 0
85.2121 0.0103716 0
85.2442 0.0258409 0
85.2454 0.00988767 0
85.2574 0.017213 0
85.24 0.0137944 0
85.2632 0.022068 0
85.2876 0.0247352 0
85.3007 0.0137968 0
85.2852 0.0232897 0
85.3101 0.0272691 0
85.3149 0.0295172 0
85.3453 0.0144662 0
85.3335 0.0189372 0
85.3491 0.026674 0
85.3662 0.0382352 0
85.3798 0.0179377 0
85.3829 0.0300542 0
85.3943 0.0404103 0
85.4177 0.0245686 0
85.3923 0.0292951 0
85.4231 0.0453073 0
85.4272 0.0427242 0
85.443 0.0274226 0
85.4577 0.0195273 0
85.4687 0.0407113 0
85.3976 0.0141661 0
85.4864 0.0465866 0
85.5256 0.0554412 0
85.5071 0.0472936 0
85.4914 0.0283194 0
85.5427 0.0562653 0
85.552 0.0493709 0
85.5847 0.0252384 0
85.5343 0.0471919 0
85.5843 0.0526038 0
85.6053 0.0616325 0
85.5479 0.0150954 0
85.5945 0.0441732 0
85.6488 0.0713 0
85.607 0.0365105 0
85.6634 0.062514 0
85.7027 0.0765314 0
85.6766 0.0565972 0
85.7055 0.0226903 0
85.7176 0.0671099 0
85.7381 0.0784348 0
85.7271 0.020964 0
85.7693 0.0870782 0
85.7335 0.0632618 0
85.8018 0.0718856 0
85.7552 0.0488133 0
85.8131 0.0955354 0
85.8892 0.116155 0
85.8515 0.0281546 0
85.8434 0.0798047 0
85.9213 0.123767 0
85.8997 0.0874135 0
85.8343 0.0349481 0
85.9428 0.114326 0
85.9736 0.121587 0
85.9381 0.0297736 0
85.991 0.0535896 0
86.0185 0.1058 0
86.0355 0.142288 0
85.9591 0.0761172 0
86.0749 0.137387 0
86.1026 0.148425 0
86.1214 0.0490671 0
86.0848 0.0906088 0
86.1646 0.166884 0
86.1621 0.142544 0
86.0507 0.0483724 0
86.1917 0.160018 0
86.2525 0.170408 0
86.2347 0.0671394 0
86.2121 0.147116 0
86.322 0.205298 0
86.3111 0.157011 0
86.1683 0.0506185 0
86.3525 0.190419 0
86.4376 0.234727 0
86.3103 0.0671387 0
86.4269 0.185602 0
86.4098 0.0855724 0
86.4796 0.196403 0
86.3818 0.111345 0
86.511 0.248225 0
86.5823 0.247871 0
86.4856 0.0686187 0
86.5728 0.24351 0
86.6646 0.281023 0
86.6333 0.0708182 0
86.5389 0.205866 0
86.6608 0.241051 0
86.724 0.284228 0
86.5996 0.0444157 0
86.7416 0.259211 0
86.8584 0.338189 0
86.8417 0.283884 0
86.7787 0.0850714 0
86.929 0.297954 0
86.7195 0.109119 0
86.7457 0.250889 0
86.9132 0.328976 0
87.039 0.372668 0
87.0529 0.382646 0
86.744 0.00494901 0
87.1648 0.43671 0
87.1804 0.424169 0
87.2168 0.377321 0
87.151 0.18447 0
87.2733 0.199617 0
87.2291 0.421236 0
86.9757 0.114177 0
87.3688 0.473864 0
87.361 0.467603 0
87.374 0.421173 0
87.2624 0.122803 0
87.4657 0.467382 0
87.6033 0.585764 0
87.4605 0.220272 0
87.393 0.231599 0
87.5661 0.475515 0
87.7463 0.608818 0
87.3014 0.143184 0
87.7906 0.645406 0
87.8376 0.627222 0
87.6491 0.122755 0
87.997 0.721499 0
88.0356 0.691007 0
88.1241 0.597894 0
87.8872 0.261748 0
87.8466 0.295614 0
88.0231 0.66914 0
87.7369 0.19037 0
88.2078 0.799972 0
88.2701 0.753652 0
88.2786 0.69735 0
87.9952 0.10512 0
88.4678 0.820939 0
88.4901 0.839873 0
88.3221 0.470108 0
88.6072 0.661723 0
88.3472 0.381524 0
88.5554 0.805645 0
88.2205 0.241384 0
88.7316 0.938861 0
88.762 0.906455 0
88.2724 0.194769 0
88.8482 0.836663 0
89.0509 0.962777 0
88.9529 0.941911 0
88.8469 0.219006 0
89.2855 1.00609 0
89.3355 1.07624 0
88.7812 0.650275 0
89.2302 0.797196 0
88.858 0.396036 0
89.5551 1.13133 0
89.0694 0.122941 0
89.6285 1.09714 0
89.627 1.03735 0
88.8643 0.0978207 0
89.5585 0.940065 0
89.9859 1.10661 0
90.0894 1.11436 0
89.5205 0.281196 0
90.1738 1.08439 0
90.2276 1.1576 0
89.4796 0.707689 0
90.2495 0.756208 0
89.7028 0.270889 0
90.4114 1.1513 0
89.7391 0.099218 0
90.5749 1.06901 0
90.674 1.0497 0
89.5443 0.0726756 0
90.4885 0.868053 0
90.9924 0.968172 0
91.1688 0.899265 0
90.0348 0.172397 0
90.9954 0.841596 0
91.321 0.843384 0
90.5911 0.735035 0
91.1115 0.406965 0
90.1389 0.105182 0
91.0761 0.755598 0
90.1691 0.037399 0
91.5854 0.727561 0
91.6796 0.57467 0
90.0476 0.0392031 0
91.3801 0.263492 0
91.8442 0.279182 0
92.0426 0.138787 0
90.2134 -0.104026 0
92.1389 -0.0727624 0
92.1893 -0.210563 0
90.3755 -0.287505 0
92.2061 -0.244565 0
91.4028 -0.681589 0
90.6291 -0.109879 0
90.4241 -0.0101683 0
92.3492 -0.544044 0
92.1108 -0.937827 0
92.5475 -1.12538 0
90.1049 -0.00814094 0
91.8277 -1.38565 0
92.5546 -1.86765 0
90.0794 -0.130809 0
91.6577 -1.34994 0
92.5334 -2.41025 0
91.1099 -1.81321 0
90.0723 -0.676725 0
92.3442 -2.75822 0
92.2059 -3.04994 0
91.0528 -1.15465 0
90.528 -3.19267 0
88.519 -2.61794 0
91.8508 -3.07787 0
88.9071 -0.41559 0
91.8377 -4.03473 0
89.3002 7.30878 0
90.0225 6.5428 0
84.705 1.92883 0
89.1995 7.26258 0
86.9888 6.63607 0
88.5451 7.8896 0
85.2823 0.75943 0
87.577 8.08614 0
86.4216 7.95149 0
84.0601 0.962026 0
86.491 8.47859 0
91.7509 -4.45017 0
89.1417 -0.256345 0
91.4875 -4.79338 0
90.2623 -5.17882 0
89.709 -4.46011 0
88.2773 -0.272135 0
90.5005 -5.77165 0
85.2134 7.73838 0
89.8554 -7.03982 0
88.0384 -1.41173 0
89.5365 -6.80364 0
88.6817 -7.76098 0
82.9292 2.36213 0
88.2503 -7.61291 0
89.4474 -4.26883 0
88.7385 -6.90321 0
86.901 -5.10521 0
85.9683 -0.841784 0
87.8115 -7.00354 0
87.0302 -7.40721 0
84.5937 8.16468 0
87.0991 -7.42122 0
86.7881 -0.457682 0
86.0838 -7.76433 0
85.5735 -8.46777 0
85.3025 -0.565969 0
84.4993 -8.60488 0
85.0062 -6.32042 0
83.1809 -0.655404 0
83.4967 -8.75339 0
83.5894 -4.85446 0
85.2692 -3.83201 0
84.0434 -7.49705 0
82.9492 -7.84127 0
85.5793 4.39617 0
82.0474 0.529837 0
84.9973 2.93866 0
83.6804 -0.0758208 0
82.4037 -8.50404 0
84.2248 7.73172 0
81.7826 0.383976 0
83.6683 6.57494 0
81.5514 -8.36573 0
83.2595 -1.71259 0
80.8746 -6.10464 0
83.6473 8.8096 0
80.6973 2.018 0
83.5481 8.73361 0
81.3794 7.27478 0
80.9811 0.410715 0
81.991 7.65411 0
81.4689 -6.35555 0
82.7853 -0.471737 0
80.7099 -8.49241 0
80.731 -8.2585 0
82.3565 8.22093 0
80.4674 7.83143 0
80.3135 0.0427713 0
81.508 8.08844 0
79.7122 5.06215 0
80.3043 2.27882 0
79.7995 -8.43784 0
80.7659 -1.09296 0
80.131 -8.31301 0
79.3435 8.28056 0
79.1893 -7.708 0
79.9245 -1.07365 0
79.5416 -3.38707 0
77.946 -7.40073 0
80.9675 -4.09545 0
77.8093 -7.15787 0
79.4455 -0.290551 0
76.9046 -6.83711 0
79.1025 2.85529 0
79.7054 0.460156 0
78.9339 6.95257 0
79.1263 0.117865 0
78.7185 8.15751 0
78.4436 7.65299 0
78.8239 0.185963 0
77.7028 6.69678 0
78.6194 0.133624 0
78.2899 -6.39819 0
79.4424 -0.574161 0
79.5056 6.02543 0
77.8517 0.732651 0
77.2632 6.28722 0
76.7941 -6.79711 0
79.5542 -0.228554 0
75.1829 -5.8123 0
77.8523 -0.440313 0
76.005 -5.72051 0
78.4007 2.54118 0
77.8515 0.120913 0
79.0164 -5.2059 0
77.8526 -0.112751 0
75.3144 -5.38506 0
76.6836 5.67216 0
76.7314 -4.24835 0
77.859 -0.240341 0
75.6296 -4.61207 0
77.7538 3.13146 0
75.6218 1.98581 0
76.1981 4.90443 0
77.5668 -0.981302 0
75.4659 -5.11044 0
77.7914 0.402142 0
76.096 6.61904 0
77.552 -2.36913 0
77.8541 -0.0838105 0
75.1437 -4.61097 0
75.8345 5.91275 0
77.79 0.715414 0
75.8114 4.62079 0
75.529 4.55998 0
77.7837 0.381614 0
74.7414 4.06203 0
74.2878 -4.13925 0
77.8219 -0.293685 0
73.9877 -4.13294 0
76.4108 -1.9673 0
77.8419 -0.199309 0
73.3721 -2.81658 0
74.7909 5.0533 0
77.7087 0.61791 0
76.0661 3.23713 0
73.9876 -2.55746 0
77.7191 -0.312095 0
73.3368 -2.33 0
73.6859 3.71756 0
77.7274 0.263444 0
74.0912 3.50217 0
74.397 2.85641 0
77.851 0.0339667 0
73.5574 3.04325 0
74.6989 -1.50576 0
77.6478 -0.537843 0
73.9817 -1.32759 0
72.7962 -0.844582 0
76.9374 -0.919637 0
72.8473 -0.715466 0
76.631 0.956483 0
77.7704 0.079756 0
75.6841 2.42233 0
73.3396 2.45078 0
77.6166 0.0589834 0
72.9178 1.54828 0
77.31 -0.234141 0
77.8322 -0.112689 0
72.8461 -0.234921 0
73.3756 -0.0918822 0
77.7925 -0.0657024 0
75.6213 0.306062 0
73.5434 0.524294 0
77.8113 -0.0616546 0
76.908 -5.6346 0
77.8796 -0.431268 0
77.8352 0.133807 0
77.7113 6.8573 0
78.6348 -7.71253 0
81.6913 -0.941836 0
80.1472 0.993849 0
81.2687 8.59217 0
77.773 0.27974 0
74.2403 4.83493 0
73.7364 -2.82521 0
77.7948 -0.2029 0
77.8245 -0.572923 0
77.3213 -3.65398 0
77.8711 0.799903 0
77.8928 0.197428 0
77.7808 -9.77557e-05 0
73.414 2.04584 0
79.0835 0.464556 0
78.2219 1.57012 0
78.5326 -1.37019 0
79.9693 -0.68829 0
85.3912 -1.27325 0
84.9705 -8.45289 0
86.8407 8.07745 0
84.9356 0.469421 0
77.5989 1.65806 0
79.2633 7.97449 0
78.2184 -7.05519 0
79.0122 -2.30751 0
76.7373 -1.45518 0
74.3851 -0.218451 0
75.874 5.8071 0
77.9089 1.88314 0
77.7532 -1.78438 0
74.5134 -4.61589 0
91.2403 -5.42866 0
87.9682 -0.665694 0
87.5543 0.796988 0
91.6761 4.53535 0
77.8657 -0.813263 0
77.8651 -0.0432754 0
77.8482 0.148631 0
78.756 0.753648 0
82.7277 0.737028 0
82.3576 4.09945 0
80.8745 -1.98476 0
83.8913 -1.74459 0
81.2929 4.88546 0
84.1576 8.29472 0
82.9993 -8.668 0
82.1781 -1.91664 0
86.1452 1.61399 0
87.22 5.03817 0
85.8 -2.79492 0
86.9248 -0.0440054 0
90.0316 -0.259526 0
92.512 -1.37476 0
92.3394 0.568233 0
89.2496 0.0302638 0
90.1421 0.000907227 0
91.7245 0.55359 0
91.4942 -0.542298 0
90.3149 0.044747 0
78.8077 -1.44223 0
78.307 -0.571994 0
78.211 1.2336 0
78.9726 0.945447 0
78.0672 1.22124 0
77.8583 0.238074 0
77.8498 -0.10771 0
78.0058 -1.12197 0
88.9567 0.965283 0
90.1834 1.91251 0
89.273 -1.16229 0
89.4633 -0.174306 0
75.7578 -0.956749 0
77.8099 -0.154869 0
77.3577 -0.439013 0
77.8189 -0.371648 0
77.8292 0.206314 0
77.7675 0.965886 0
90.7567 0.991568 0
89.8886 0.155238 0
90.0793 -0.00236842 0
90.4567 -1.07877 0
81.3301 -0.0417062 0
80.5846 -2.81738 0
81.6173 1.8011 0
80.3665 0.447572 0
77.5649 4.0283 0
76.9977 7.29274 0
76.7672 -6.23696 0
78.0528 -3.21343 0
78.569 -2.10272 0
77.3349 -2.2236 0
77.6393 4.62255 0
78.0144 2.21857 0
90.326 0.0565763 0
90.0775 0.146757 0
90.242 -0.0538519 0
91.2203 0.07432 0
79.4208 -5.40749 0
80.4871 -5.24723 0
80.0953 4.62822 0
80.5756 8.51116 0
78.8011 -3.96719 0
79.9634 -2.30866 0
79.7931 3.11017 0
79.0225 1.53067 0
89.9098 1.17927 0
89.3292 0.143197 0
89.6038 -0.00937001 0
89.4438 -1.05953 0
77.1566 1.00922 0
77.8253 0.0309817 0
90.1496 -0.0550312 0
90.8141 -0.344263 0
90.516 0.241649 0
89.9567 0.0378511 0
78.6327 -0.952602 0
78.1863 -1.32687 0
78.9078 1.73573 0
78.0993 0.735063 0
77.8709 -0.146215 0
78.0384 -0.695203 0
77.9013 0.314895 0
77.8475 0.136325 0
73.8561 1.70745 0
76.7666 1.51902 0
86.5496 -3.15998 0
89.849 -6.38543 0
90.7995 5.84735 0
86.2622 2.28299 0
76.5839 -2.30108 0
74.4846 -2.88764 0
88.5563 0.159973 0
88.8373 0.905041 0
87.7497 0.0760509 0
88.4294 0.860507 0
88.8512 -0.882011 0
88.7056 -0.142926 0
88.1545 -0.71553 0
88.0986 -0.0122974 0
89.7836 -0.217907 0
89.8841 -0.630734 0
89.7311 0.397261 0
89.473 0.00615115 0
77.8284 0.180033 0
77.5877 0.536002 0
76.266 0.45223 0
73.9542 0.842876 0
77.7309 -0.246871 0
77.8165 -0.1704 0
77.2526 0.27539 0
77.1627 -0.744887 0
92.343 -2.81314 0
89.2061 -1.77177 0
90.1832 2.25583 0
92.4982 1.67625 0
77.9486 -0.0644041 0
78.0248 -0.366312 0
77.8655 0.0505039 0
78.1786 0.25997 0
89.1057 -0.209356 0
89.1113 -0.545217 0
89.1532 0.364801 0
88.714 0.116766 0
87.5235 0.167053 0
87.7223 0.53531 0
87.7314 -0.62443 0
87.6334 -0.152037 0
78.3112 -0.896329 0
79.1399 -2.12469 0
78.6168 1.60726 0
78.2809 1.26932 0
78.8954 2.87061 0
77.398 1.84389 0
77.9404 -1.91616 0
78.5396 -2.7813 0
90.7077 -0.557966 0
91.6525 0.269883 0
91.827 -0.259796 0
91.1318 0.603717 0
77.556 -1.14224 0
77.6613 -1.35901 0
77.7078 1.07757 0
77.1736 1.29952 0
87.5092 0.550941 0
87.1867 0.164202 0
87.2603 -0.102278 0
87.4372 -0.468751 0
84.6954 4.26689 0
86.6606 7.13446 0
86.1526 -8.39673 0
85.7185 -3.35007 0
74.9573 -3.40876 0
77.2935 -3.50073 0
84.3263 -3.06074 0
84.9519 -1.09749 0
83.3502 0.452259 0
86.5899 3.1181 0
74.5312 4.60601 0
76.4925 2.7215 0
88.3792 -0.0517698 0
88.5521 -0.556317 0
88.4323 0.370317 0
88.3369 0.102198 0
88.3924 -0.372857 0
88.1819 -1.52698 0
88.731 2.108 0
87.7623 0.274322 0
82.7381 1.39334 0
81.0524 0.349535 0
82.1372 -0.334114 0
82.7682 -3.10706 0
90.4692 0.317002 0
90.7474 0.856103 0
90.913 -0.932414 0
90.8364 -0.0392841 0
81.7869 -3.82359 0
82.8593 -1.83549 0
82.0973 2.70499 0
84.5784 5.98272 0
87.0294 0.331142 0
86.8965 0.0625935 0
87.1129 -0.100625 0
87.0028 -0.345091 0
87.7591 -0.188472 0
87.9619 -0.00734086 0
87.9284 0.103195 0
87.7085 0.438826 0
79.6594 0.494547 0
79.4264 1.29793 0
79.6706 -1.14441 0
80.4781 -0.315793 0
81.109 2.81793 0
79.5681 1.94297 0
78.956 -2.8252 0
78.163 -2.84865 0
90.073 -0.49557 0
89.8238 -0.284991 0
89.6525 0.383864 0
90.5761 0.649221 0
79.5251 3.83395 0
80.0369 2.5593 0
79.0689 -0.821021 0
78.9142 -0.291163 0
78.7693 0.264263 0
79.4304 0.886611 0
76.3845 -0.869633 0
77.385 -1.34115 0
91.7155 -3.70903 0
89.2621 -2.0922 0
88.7383 3.77857 0
92.103 3.77625 0
77.8027 -0.863708 0
77.8696 -0.140426 0
77.8028 0.200461 0
77.8763 0.841151 0
78.1189 0.0876613 0
78.132 0.62217 0
78.2693 -0.344121 0
78.4009 -0.0207596 0
75.2117 -0.26624 0
72.8625 0.151019 0
84.6971 3.2216 0
88.6902 2.99747 0
87.4024 -2.52479 0
88.001 -4.99185 0
77.4001 2.05698 0
76.983 1.14434 0
77.8526 -0.0246176 0
77.587 -0.048205 0
80.0198 6.81234 0
78.0207 4.03975 0
79.7086 -4.28465 0
78.6832 -8.07511 0
77.2541 0.783669 0
77.7181 0.42408 0
89.7647 0.528761 0
90.1218 1.15595 0
89.7883 -1.05848 0
89.7558 -0.203799 0
87.2818 -0.12283 0
87.5402 -0.0830035 0
87.5073 0.070797 0
87.3573 0.406209 0
92.2371 0.479678 0
91.0984 1.4192 0
91.1308 -0.585924 0
92.3742 -0.745243 0
77.3766 0.108669 0
76.6636 -1.74176 0