# vtk DataFile Version 3.0
Unstructured Grid for Triangles
ASCII
DATASET UNSTRUCTURED_GRID
POINTS 29612 DOUBLE
-2.72397e-05 1.23686e-06 0
-2.95789e-05 9.5838e-07 0
-2.77865e-05 -3.1235e-07 0
0.0002024 5e-05 0
0.000203975 4.9875e-05 0
0.000205 5e-05 0
0.000203975 -4.9875e-05 0
0.0002024 -5e-05 0
0.000205 -5e-05 0
0.00020295 4.975e-05 0
0.00020295 -4.975e-05 0
0.000201925 4.9625e-05 0
0.000201925 -4.9625e-05 0
-5.29747e-05 -4.79887e-05 0
-5.5e-05 -5e-05 0
-5.24e-05 -5e-05 0
-5.05983e-05 -4.84325e-05 0
-4.98e-05 -5e-05 0
-4.72e-05 -5e-05 0
-4.83864e-05 -4.87761e-05 0
-4.46e-05 -5e-05 0
-4.59e-05 -4.84239e-05 0
-4.29453e-05 -4.24878e-05 0
-4.47486e-05 -4.20717e-05 0
-4.41829e-05 -4.36609e-05 0
-5.12578e-05 -4.62101e-05 0
-4.93077e-05 -4.53594e-05 0
-5.0706e-05 -4.39006e-05 0
-4.19243e-05 -4.77545e-05 0
-4.40307e-05 -4.71837e-05 0
-4.3691e-05 -4.86724e-05 0
-5.16129e-05 -4.20948e-05 0
-4.95355e-05 -4.15432e-05 0
-5.11646e-05 -4.0128e-05 0
-3.94697e-05 -4.81197e-05 0
-4.06302e-05 -4.55143e-05 0
-5.37257e-05 -3.88197e-05 0
-5.31099e-05 -4.07297e-05 0
-5.23982e-05 -3.88328e-05 0
-3.70063e-05 -4.72956e-05 0
-3.68e-05 -5e-05 0
-3.5308e-05 -4.85302e-05 0
-5.072e-05 -3.7867e-05 0
-4.85506e-05 -3.83975e-05 0
-4.90949e-05 -3.59622e-05 0
-3.37127e-05 -4.84331e-05 0
-3.16e-05 -5e-05 0
-3.26495e-05 -4.7415e-05 0
-5.5e-05 -3.5e-05 0
-5.31201e-05 -3.70361e-05 0
-5.28367e-05 -3.46817e-05 0
-3.63898e-05 -4.48809e-05 0
-3.83315e-05 -4.60336e-05 0
-3.26269e-06 -4.15503e-05 0
-5.99662e-06 -4.09556e-05 0
-5.46944e-06 -4.29488e-05 0
-5.29747e-05 4.79887e-05 0
-5.5e-05 5e-05 0
-5.5e-05 4.75e-05 0
-5.5e-05 4.5e-05 0
-5.34834e-05 4.29171e-05 0
-5.26943e-05 4.42611e-05 0
-5.34026e-05 4.60176e-05 0
-5.31099e-05 4.07297e-05 0
-5.11672e-05 4.01178e-05 0
-5.16129e-05 4.20948e-05 0
-5.24e-05 5e-05 0
-5.05983e-05 4.84325e-05 0
-5.31201e-05 3.70361e-05 0
-5.072e-05 3.7867e-05 0
-5.23982e-05 3.88328e-05 0
-4.8341e-05 4.69132e-05 0
-4.83679e-05 4.87539e-05 0
-5.28367e-05 3.46817e-05 0
-5.5e-05 3.25e-05 0
-5.25657e-05 3.28474e-05 0
-4.98e-05 5e-05 0
-5.30382e-05 3.125e-05 0
-4.19243e-05 4.77545e-05 0
-4.40015e-05 4.7335e-05 0
-4.25917e-05 4.63678e-05 0
-4.35138e-05 2.62661e-05 0
-4.14982e-05 2.74462e-05 0
-4.35654e-05 2.85217e-05 0
-4.59e-05 4.84239e-05 0
-4.36852e-05 4.87027e-05 0
-4.46e-05 5e-05 0
-5.33308e-05 2.92503e-05 0
-5.5e-05 2.75e-05 0
-5.23377e-05 2.76953e-05 0
-4.25282e-05 4.46352e-05 0
-4.09368e-05 4.35728e-05 0
-4.06302e-05 4.55143e-05 0
0.0002009 4.95e-05 0
0.0001998 5e-05 0
0.000199875 4.9375e-05 0
0.00019885 4.925e-05 0
0.0001972 5e-05 0
0.000197825 4.9125e-05 0
0.0001968 4.9e-05 0
0.000195775 4.8875e-05 0
0.0001946 5e-05 0
0.00019475 4.875e-05 0
0.000193725 4.8625e-05 0
0.000192 5e-05 0
0.0001927 4.85e-05 0
0.000191675 4.8375e-05 0
0.00019065 4.825e-05 0
0.0001894 5e-05 0
0.000189625 4.8125e-05 0
0.0001886 4.8e-05 0
0.0001868 5e-05 0
0.000187575 4.7875e-05 0
0.00018655 4.775e-05 0
0.000185515 4.8575e-05 0
0.0001842 5e-05 0
0.0001845 4.75e-05 0
0.000185525 4.7625e-05 0
0.000182564 4.829e-05 0
0.0001816 5e-05 0
0.00018245 4.725e-05 0
0.000183475 4.7375e-05 0
0.000181425 4.7125e-05 0
0.000180295 4.82657e-05 0
0.000179 5e-05 0
0.000179375 4.6875e-05 0
0.0001804 4.7e-05 0
0.000178168 4.80619e-05 0
0.0001764 5e-05 0
0.000177325 4.6625e-05 0
0.00017835 4.675e-05 0
0.000176428 4.76631e-05 0
0.0001763 4.65e-05 0
0.0001738 5e-05 0
0.0001751 4.84164e-05 0
0.000175275 4.6375e-05 0
0.000174025 4.75632e-05 0
0.0001712 5e-05 0
0.000172615 4.78449e-05 0
0.0001722 4.6e-05 0
0.000173225 4.6125e-05 0
0.00017015 4.575e-05 0
0.000171243 4.7381e-05 0
0.000169554 4.79999e-05 0
0.0001686 5e-05 0
0.000167507 4.79751e-05 0
0.000168498 4.64861e-05 0
0.000166 5e-05 0
0.00016558 4.71459e-05 0
0.000167135 4.62887e-05 0
0.0001681 4.55e-05 0
0.00016605 4.525e-05 0
0.000167075 4.5375e-05 0
0.000164059 4.61599e-05 0
0.00016394 4.79552e-05 0
0.000162881 4.6615e-05 0
0.000162975 4.4875e-05 0
0.000165025 4.5125e-05 0
0.000164 4.5e-05 0
0.000161754 4.58641e-05 0
0.000161722 4.78101e-05 0
0.000159956 4.58294e-05 0
0.000160925 4.4625e-05 0
0.00016195 4.475e-05 0
0.000157667 4.60322e-05 0
0.000158875 4.4375e-05 0
0.000159194 4.80155e-05 0
0.0001599 4.45e-05 0
0.00015785 4.425e-05 0
0.000155808 4.56757e-05 0
0.000155647 4.76701e-05 0
0.000154059 4.66642e-05 0
0.000153756 4.50083e-05 0
0.000154839 4.50446e-05 0
0.000156825 4.4125e-05 0
0.000151954 4.80508e-05 0
0.000154052 4.8477e-05 0
0.000153 5e-05 0
0.000154775 4.3875e-05 0
0.000152142 4.56625e-05 0
0.000152821 4.45753e-05 0
0.00015375 4.375e-05 0
0.0001504 5e-05 0
0.000149644 4.85168e-05 0
0.000151787 4.43178e-05 0
0.000152725 4.3625e-05 0
0.000150675 4.3375e-05 0
0.0001517 4.35e-05 0
0.000148119 4.50887e-05 0
0.000148072 4.75757e-05 0
0.000146584 4.63516e-05 0
0.000150008 4.6396e-05 0
0.000149351 4.4543e-05 0
0.00015061 4.46252e-05 0
0.0001476 4.3e-05 0
0.000148625 4.3125e-05 0
0.000146492 4.82975e-05 0
0.000144888 4.73562e-05 0
0.000146676 4.44259e-05 0
0.000145255 4.53656e-05 0
0.000145652 4.38669e-05 0
0.000141401 4.79821e-05 0
0.0001426 5e-05 0
0.00014 5e-05 0
0.000144374 4.38862e-05 0
0.00014555 4.275e-05 0
0.0001435 4.25e-05 0
0.000144525 4.2625e-05 0
0.000142746 4.38121e-05 0
0.000141288 4.43191e-05 0
0.000141707 4.32778e-05 0
0.00013921 4.38992e-05 0
0.000140355 4.5932e-05 0
0.000138302 4.5922e-05 0
0.000142912 4.58869e-05 0
0.000140592 4.30037e-05 0
0.00014145 4.225e-05 0
0.000136458 4.5869e-05 0
0.000137106 4.4063e-05 0
0.0001394 4.2e-05 0
0.000138259 4.28915e-05 0
0.000137484 4.77094e-05 0
0.000139166 4.78902e-05 0
0.00013586 4.78984e-05 0
0.000133449 4.78649e-05 0
0.000134717 4.61848e-05 0
0.000137256 4.25134e-05 0
0.000135323 4.24541e-05 0
0.000136325 4.1625e-05 0
0.000136122 4.2876e-05 0
0.000131206 4.47284e-05 0
0.000133168 4.56738e-05 0
0.000131773 4.65243e-05 0
0.000134756 4.40343e-05 0
0.000132747 4.36463e-05 0
0.000133483 4.26786e-05 0
0.000131081 4.1867e-05 0
0.000132382 4.22815e-05 0
0.000131507 4.3122e-05 0
0.000131059 4.80123e-05 0
0.00013325 4.125e-05 0
0.00012915 4.075e-05 0
0.00012982 4.18199e-05 0
0.000128915 4.26216e-05 0
0.000126366 4.47574e-05 0
0.000127331 4.30908e-05 0
0.000128781 4.44872e-05 0
0.000125336 4.28376e-05 0
0.000130218 4.31077e-05 0
0.000127894 4.16344e-05 0
0.000124774 4.69608e-05 0
0.000127668 4.64148e-05 0
0.000126591 4.8331e-05 0
0.000126722 4.18415e-05 0
0.000125768 4.11931e-05 0
0.000124326 4.13546e-05 0
0.00012505 4.025e-05 0
0.000122408 4.50118e-05 0
0.000120276 4.47432e-05 0
0.00012139 4.32235e-05 0
0.000124336 4.44132e-05 0
0.000123056 4.27595e-05 0
0.000122977 4.09049e-05 0
0.00012185 4.69217e-05 0
0.000122676 4.85947e-05 0
0.000120525 4.86094e-05 0
0.000121479 4.13153e-05 0
0.000119547 4.24221e-05 0
0.000120249 4.07448e-05 0
0.000119925 3.9625e-05 0
0.000119346 4.06114e-05 0
0.000117479 4.47279e-05 0
0.000114726 4.45259e-05 0
0.00011571 4.27814e-05 0
0.000119443 4.66611e-05 0
0.000117447 4.21596e-05 0
0.000118421 4.0752e-05 0
0.000117409 4.04437e-05 0
0.000116775 4.70073e-05 0
0.0001179 4.855e-05 0
0.000115473 4.84802e-05 0
0.00011685 3.925e-05 0
0.000117875 3.9375e-05 0
0.000115454 4.00551e-05 0
0.0001148 3.9e-05 0
0.000115825 3.9125e-05 0
0.000111704 4.23398e-05 0
0.000113786 4.26731e-05 0
0.000112589 4.43871e-05 0
0.000113234 4.06671e-05 0
0.000114754 4.13371e-05 0
0.0001106 4.42326e-05 0
0.000109703 4.24261e-05 0
0.00011275 3.875e-05 0
0.000113775 3.8875e-05 0
0.000110211 4.80875e-05 0
0.000108244 4.71951e-05 0
0.000109312 4.58413e-05 0
0.000111755 3.99116e-05 0
0.00010944 3.92972e-05 0
0.000110415 4.05876e-05 0
0.000108839 4.07536e-05 0
0.000106472 4.76905e-05 0
0.000107274 4.57868e-05 0
0.000108011 3.92415e-05 0
0.000106885 4.04365e-05 0
0.000106625 3.88708e-05 0
0.000105286 4.19254e-05 0
0.000105055 3.95469e-05 0
0.000104215 4.39764e-05 0
0.000106346 4.40629e-05 0
0.000100945 4.51249e-05 0
0.000102825 4.5614e-05 0
0.000101189 4.68452e-05 0
0.000107625 3.8125e-05 0
0.000105575 3.7875e-05 0
0.0001066 3.8e-05 0
0.000103352 4.76905e-05 0
0.000101803 4.8465e-05 0
0.000103685 3.89398e-05 0
0.00010245 3.8825e-05 0
0.000103525 3.7625e-05 0
0.000101092 3.99779e-05 0
0.000101267 3.82619e-05 0
0.000101382 4.2025e-05 0
0.000103187 4.05286e-05 0
0.000103359 4.24605e-05 0
9.87383e-05 4.5447e-05 0
9.99411e-05 4.35161e-05 0
9.744e-05 4.33145e-05 0
0.00010045 3.725e-05 0
0.000101475 3.7375e-05 0
9.70845e-05 4.65215e-05 0
9.52614e-05 4.67664e-05 0
9.61768e-05 4.49944e-05 0
9.9729e-05 3.87704e-05 0
9.78901e-05 3.9598e-05 0
9.85823e-05 3.81492e-05 0
9.62289e-05 3.93709e-05 0
9.74259e-05 3.81279e-05 0
9.7375e-05 3.6875e-05 0
9.63045e-05 3.76631e-05 0
9.58e-05 5e-05 0
9.32e-05 5e-05 0
9.47542e-05 4.8457e-05 0
9.49675e-05 3.85246e-05 0
9.36214e-05 3.89472e-05 0
9.40006e-05 3.74906e-05 0
9.66411e-05 4.12573e-05 0
9.44241e-05 4.07079e-05 0
9.03569e-05 4.24993e-05 0
9.21701e-05 4.02409e-05 0
9.27439e-05 4.27744e-05 0
8.89795e-05 4.09067e-05 0
9.03071e-05 4.0248e-05 0
9.25447e-05 3.77721e-05 0
9.3275e-05 3.6375e-05 0
9.07708e-05 3.87127e-05 0
9.11303e-05 3.70839e-05 0
9.11933e-05 4.55145e-05 0
9.30678e-05 4.73279e-05 0
9.11886e-05 4.82603e-05 0
8.87724e-05 3.88076e-05 0
8.99595e-05 3.75116e-05 0
9.02e-05 3.6e-05 0
8.89241e-05 3.6954e-05 0
8.36977e-05 4.59472e-05 0
8.36223e-05 4.83578e-05 0
8.20467e-05 4.74142e-05 0
8.71227e-05 4.03557e-05 0
8.61e-05 3.55e-05 0
8.68368e-05 3.65714e-05 0
8.5484e-05 3.6588e-05 0
8.47735e-05 4.02845e-05 0
8.23121e-05 4.21599e-05 0
8.26582e-05 3.98147e-05 0
8.46943e-05 4.2454e-05 0
8.38832e-05 3.78613e-05 0
8.35569e-05 3.63808e-05 0
8.44098e-05 3.6291e-05 0
8.5075e-05 3.5375e-05 0
8.51465e-05 4.77163e-05 0
8.3025e-05 3.5125e-05 0
8.22824e-05 3.68659e-05 0
8.1446e-05 3.57362e-05 0
8.05884e-05 3.71794e-05 0
7.53471e-05 4.77524e-05 0
7.38313e-05 4.73927e-05 0
7.39102e-05 4.61526e-05 0
7.9826e-05 3.58588e-05 0
7.88607e-05 3.76287e-05 0
7.81733e-05 3.57987e-05 0
8.16783e-05 3.84471e-05 0
8.07975e-05 4.04095e-05 0
7.52138e-05 4.04775e-05 0
7.67682e-05 4.17043e-05 0
7.49617e-05 4.21803e-05 0
7.52903e-05 3.84008e-05 0
7.38293e-05 3.93136e-05 0
[...]
CELL_DATA 58684
VECTORS velocity DOUBLE
74.3501 0.337125 0
86.9841 3.18846e-06 0
86.9586 5.67088e-05 0
86.9891 -0.00135567 0
86.9626 0.00124948 0
86.9947 -0.00254268 0
86.9686 0.00282314 0
77.8903 -0.000894026 0
77.9101 -0.0249213 0
78.0373 -0.00203853 0
78.1634 -0.00425854 0
78.2341 -0.4104 0
77.9534 -0.109696 0
78.3192 -0.135293 0
77.9292 -0.184536 0
78.5312 -0.170003 0
77.8911 -0.11302 0
78.9108 -0.157792 0
77.9896 -0.317785 0
79.4389 -0.110928 0
77.9029 -0.116495 0
78.8777 -0.370932 0
85.5934 -2.17387 0
77.8662 0.0126362 0
77.8739 0.0516121 0
77.8654 0.0249213 0
77.9219 0.142803 0
77.9097 0.0237516 0
77.9136 0.188198 0
78.0336 0.0488939 0
77.9005 0.145376 0
77.9825 0.0336408 0
77.8647 0.143525 0
78.3964 0.162567 0
78.1012 1.13569 0
78.238 0.0688642 0
77.9117 0.180362 0
78.4801 0.354968 0
87.0005 5.51438e-05 0
87.0054 -0.000127491 0
87.0143 -0.00536914 0
87.0163 -0.00301436 0
87.0252 -0.000270394 0
87.0334 -0.00490753 0
87.0358 -0.00707451 0
87.0388 -0.00341398 0
87.0463 -0.000374485 0
87.0529 -0.00739842 0
87.054 -0.00545531 0
87.0619 -0.00092287 0
87.0702 -0.00825589 0
87.0716 -0.00904663 0
87.0739 -0.00507158 0
87.0809 -0.000975805 0
87.0868 -0.00948939 0
87.0875 -0.00751014 0
87.095 -0.00184576 0
87.1036 -0.0118071 0
87.1048 -0.0117568 0
87.1068 -0.00644825 0
87.1159 -0.000753009 0
87.1183 -0.0141436 0
87.1254 -0.00963246 0
87.136 -0.0010178 0
87.1373 -0.0170566 0
87.1395 -0.01453 0
87.1466 -0.0119245 0
87.1533 -0.00132608 0
87.155 -0.0171695 0
87.162 -0.0127075 0
87.1703 -0.0020634 0
87.1718 -0.0194948 0
87.1773 -0.0145294 0
87.1848 -0.0232684 0
87.1923 -0.00118857 0
87.1953 -0.0177233 0
87.2007 -0.0113655 0
87.2123 -0.0022282 0
87.2148 -0.0244254 0
87.2353 -0.0201334 0
87.2184 -0.0197635 0
87.2365 -0.00161228 0
87.2445 -0.0128376 0
87.2389 -0.0252077 0
87.2674 -0.0156119 0
87.2621 -0.020921 0
87.2596 -0.0288092 0
87.2713 -0.0345937 0
87.2925 -0.0223018 0
87.3071 -0.0314972 0
87.2837 -0.0269058 0
87.3002 -0.038483 0
87.3181 -0.029437 0
87.3141 -0.0296654 0
87.323 -0.0409121 0
87.3549 -0.038531 0
87.3371 -0.0326609 0
87.3454 -0.0433604 0
87.3637 -0.0501486 0
87.3695 -0.0376623 0
87.395 -0.0453503 0
87.3727 -0.0401654 0
87.3974 -0.0131432 0
87.3999 -0.0506558 0
87.4197 -0.0480073 0
87.4112 -0.0517871 0
87.4211 -0.014668 0
87.4263 -0.0553237 0
87.4428 -0.060709 0
87.4608 -0.03444 0
87.4572 -0.0370868 0
87.4427 -0.0502881 0
87.4773 -0.0649724 0
87.4755 -0.0265137 0
87.5063 -0.0594147 0
87.4925 -0.0384381 0
87.5269 -0.00329153 0
87.5174 -0.067478 0
87.5323 -0.0758092 0
87.5634 -0.0675709 0
87.5817 -0.0507727 0
87.5363 -0.0402968 0
87.5727 -0.0768951 0
87.6064 -0.051582 0
87.6027 -0.0801212 0
87.5759 -0.0282475 0
87.6154 -0.0728041 0
87.6264 -0.027505 0
87.628 -0.0840009 0
87.6546 -0.0958938 0
87.6845 -0.0567469 0
87.6799 -0.0792607 0
87.6513 -0.0369658 0
87.7183 -0.102574 0
87.6631 -0.0297994 0
87.6987 -0.102295 0
87.7615 -0.114606 0
87.7713 -0.0807248 0
87.7871 -0.0974984 0
87.7482 -0.0959741 0
87.7762 -0.105133 0
87.7404 -0.0448937 0
87.8174 -0.120676 0
87.8422 -0.132587 0
87.8682 -0.0866443 0
87.7948 -0.0631224 0
87.8373 -0.113425 0
87.8567 -0.133486 0
87.8151 -0.0267981 0
87.9206 -0.144034 0
87.933 -0.157906 0
87.9674 -0.097659 0
87.8859 -0.0836782 0
87.9453 -0.132236 0
87.9654 -0.159123 0
87.9041 -0.0286694 0
87.9833 -0.18298 0
88.0291 -0.196009 0
88.0385 -0.1388 0
88.0374 -0.160463 0
88.0823 -0.148178 0
88.0679 -0.203538 0
88.0606 -0.0537582 0
88.0764 -0.191758 0
88.1441 -0.197637 0
88.1132 -0.0656162 0
88.2058 -0.235059 0
88.2298 -0.217877 0
88.2086 -0.139159 0
88.2655 -0.107497 0
88.2094 -0.240623 0
88.2447 -0.264659 0
88.2382 -0.0542466 0
88.3115 -0.271969 0
88.357 -0.279893 0
88.2815 -0.200759 0
88.3392 -0.129339 0
88.3752 -0.166924 0
88.3869 -0.31894 0
88.4182 -0.111209 0
88.4472 -0.301105 0
88.4768 -0.296676 0
88.4995 -0.346194 0
88.4481 -0.00586066 0
88.5945 -0.34749 0
88.486 -0.268173 0
88.5994 -0.245211 0
88.6646 -0.287013 0
88.6412 -0.387043 0
88.6947 -0.391645 0
88.5604 -0.0884364 0
88.7308 -0.382818 0
88.7561 -0.440715 0
88.7693 -0.424055 0
88.8538 -0.0999272 0
88.7529 -0.338086 0
88.9162 -0.491302 0
88.9631 -0.37426 0
88.888 -0.315801 0
88.9738 -0.520474 0
88.9579 -0.51282 0
88.843 -0.0893733 0
89.058 -0.573309 0
89.094 -0.539209 0
89.2615 -0.104851 0
89.1897 -0.592992 0
89.0399 -0.414161 0
89.2829 -0.380185 0
89.3443 -0.490795 0
89.2423 -0.538396 0
89.2662 -0.644506 0
89.3185 -0.233393 0
89.4346 -0.624488 0
89.3897 -0.717501 0
89.5743 -0.730456 0
89.5263 -0.0118928 0
89.5284 -0.600936 0
89.5862 -0.755915 0
89.4257 -0.186213 0
89.6483 -0.795647 0
89.7359 -0.458857 0
89.6935 -0.83205 0
89.8918 -0.257472 0
89.8596 -0.71791 0
89.8253 -0.84487 0
89.7587 -0.12907 0
89.9648 -0.872618 0
90.1411 -0.850615 0
89.9887 -0.724026 0
90.0298 -0.436624 0
90.1741 -0.976924 0
90.1764 -0.382317 0
90.3272 -0.0660929 0
90.1198 -0.76938 0
90.2886 -0.96784 0
90.3744 -1.03911 0
90.3928 -0.325575 0
90.5158 -0.896774 0
90.6699 -0.98207 0
90.4649 -0.110295 0
90.814 -0.955105 0
90.7297 -1.06627 0
90.5906 -0.789327 0
90.6428 -0.381218 0
90.7564 -0.445843 0
90.8821 -1.07212 0
90.8008 -0.0072939 0
90.9869 -1.14268 0
91.1198 -1.08533 0
91.0762 -1.14193 0
91.04 -0.249424 0
91.1819 -0.930645 0
91.4289 -0.944879 0
91.0016 -0.00539536 0
91.5172 -1.12087 0
91.6916 -0.953758 0
91.3432 -0.691087 0
91.1667 -0.28569 0
91.6874 -1.0773 0
91.3281 -0.354456 0
91.1239 -0.0169171 0
91.6174 -0.726173 0
91.9466 -0.981444 0
92.1102 -0.917042 0
91.3001 -0.0767881 0
92.0595 -0.62699 0
92.1972 -0.822197 0
91.1553 0.0301081 0
92.3343 -0.811497 0
92.5205 -0.681327 0
92.1446 -0.241686 0
90.8988 0.00884144 0
92.6755 -0.457702 0
91.8136 0.192838 0
92.0443 0.299043 0
92.5493 -0.303798 0
92.3287 -0.0393 0
93.0036 -0.0684777 0
91.0174 0.370156 0
92.9882 -0.172466 0
92.5392 0.406616 0
93.1879 0.47226 0
90.9363 0.106872 0
93.1419 1.18058 0
92.9121 1.41512 0
89.5309 0.198258 0
93.3679 0.867038 0
93.2665 1.35236 0
90.9024 1.47639 0
90.6607 0.704225 0
92.2012 1.10687 0
93.1618 1.89079 0
89.7873 0.330711 0
92.66 2.78741 0
93.3396 2.12698 0
93.352 2.35661 0
89.0044 1.41809 0
91.6762 2.92038 0
92.7133 3.17672 0
88.9891 0.233071 0
92.5243 3.68226 0
92.1741 3.56501 0
91.1892 5.20208 0
86.6608 0.398309 0
92.337 4.89522 0
90.3337 3.53185 0
88.4502 1.56979 0
88.0492 2.99408 0
92.0977 5.40573 0
90.9503 5.86057 0
87.1074 0.610494 0
91.0212 6.6898 0
86.9741 0.000201743 0
86.9791 7.71979e-05 0
86.987 0.0046721 0
86.9888 0.00258346 0
86.997 0.000265666 0
87.0048 0.00461453 0
87.0068 0.00609152 0
87.0101 0.00264014 0
87.0168 0.000417143 0
87.023 0.00697489 0
87.024 0.00484989 0
87.0315 0.000882761 0
87.0391 0.00770599 0
87.0404 0.00851951 0
87.0426 0.00477112 0
87.0494 0.000942922 0
87.055 0.00921106 0
87.0559 0.00717073 0
87.0633 0.00181606 0
87.0716 0.0114744 0
87.0728 0.0114154 0
87.0834 0.0147404 0
87.0748 0.00621444 0
87.0904 0.00940854 0
87.1018 0.0149285 0
87.0931 0.00965654 0
87.1074 0.0145947 0
87.1145 0.0119428 0
87.1212 0.0186586 0
87.1112 0.00951739 0
87.1296 0.0128168 0
87.1376 0.0209285 0
87.1294 0.0100229 0
87.1529 0.0239852 0
87.1557 0.0220172 0
87.1611 0.0169913 0
87.1485 0.0123501 0
87.1635 0.0181012 0
87.1795 0.0175973 0
87.169 0.011614 0
87.1947 0.0298796 0
87.1936 0.0116215 0
87.2045 0.0204458 0
87.1904 0.015466 0
87.2082 0.0255909 0
87.2295 0.0292471 0
87.237 0.015996 0
87.2257 0.0266904 0
87.2471 0.0316463 0
87.2498 0.0346787 0
87.2723 0.0180215 0
87.2628 0.0225799 0
87.2773 0.0318303 0
87.2918 0.0444743 0
87.2982 0.0216398 0
87.3045 0.0357706 0
87.3136 0.0466272 0
87.3259 0.0271665 0
87.3074 0.0329264 0
87.3354 0.0514505 0
87.3376 0.0490309 0
87.3457 0.0312807 0
87.3567 0.0224299 0
87.3668 0.0454004 0
87.3099 0.0147582 0
87.3831 0.0525989 0
87.4152 0.0621786 0
87.398 0.0526362 0
87.3832 0.031713 0
87.4273 0.062419 0
87.4341 0.055522 0
87.4501 0.0269566 0
87.4164 0.0514565 0
87.4567 0.0579043 0
87.473 0.0666302 0
87.4227 0.0162672 0
87.4608 0.0476303 0
87.5076 0.0765472 0
87.4692 0.0393134 0
87.5183 0.0682219 0
87.5468 0.0803243 0
87.5217 0.0590147 0
87.5372 0.0242955 0
87.5559 0.0699515 0
87.5738 0.0823372 0
87.5502 0.0208544 0
87.5966 0.0896978 0
87.5628 0.0646814 0
87.6179 0.0747441 0
87.5779 0.0513119 0
87.6283 0.0961576 0
87.6846 0.115173 0
87.6394 0.0294215 0
87.6418 0.0789038 0
87.7084 0.121912 0
87.6843 0.0862401 0
87.6285 0.0359713 0
87.723 0.11305 0
87.7434 0.118598 0
87.6985 0.0293377 0
87.7424 0.0537609 0
87.7725 0.103616 0
87.7904 0.137041 0
87.7199 0.0730583 0
87.8181 0.133711 0
87.837 0.142036 0
87.8307 0.0491013 0
87.8143 0.0887918 0
87.8815 0.158361 0
87.8736 0.134876 0
87.7769 0.0448584 0
87.8976 0.151434 0
87.9428 0.162518 0
87.9113 0.0651826 0
87.9097 0.138611 0
87.9953 0.19391 0
87.9807 0.147978 0
87.8606 0.0471774 0
88.017 0.18171 0
88.0789 0.221165 0
87.963 0.0642424 0
88.0642 0.176016 0
88.0378 0.0827234 0
88.1019 0.185134 0
88.0187 0.10403 0
88.1335 0.235144 0
88.1845 0.236681 0
88.0895 0.0656255 0
88.1756 0.230729 0
88.2464 0.26756 0
88.1967 0.0691565 0
88.1458 0.193807 0
88.2354 0.229344 0
88.2897 0.272634 0
88.172 0.0410403 0
88.2994 0.249058 0
88.3941 0.324161 0
88.3734 0.272786 0
88.307 0.0827926 0
88.4416 0.285772 0
88.2644 0.104536 0
88.3007 0.23915 0
88.4338 0.315813 0
88.5348 0.360768 0
88.5431 0.36972 0
88.2798 0.00654754 0
88.6362 0.422029 0
88.6463 0.411507 0
88.6685 0.365369 0
88.6046 0.179956 0
88.7052 0.198103 0
88.6837 0.408923 0
88.4636 0.110849 0
88.8002 0.463936 0
88.7909 0.454403 0
88.7974 0.408983 0
88.6897 0.118774 0
88.8753 0.45782 0
88.9945 0.571439 0
88.8554 0.213693 0
88.8024 0.226973 0
88.9539 0.462474 0
89.115 0.597856 0
88.7254 0.140337 0
89.1526 0.631371 0
89.1904 0.615504 0
89.0066 0.120926 0
89.3275 0.705464 0
89.3598 0.67776 0
89.4281 0.585201 0
89.2115 0.257058 0
89.1799 0.291382 0
89.3445 0.655088 0
89.0853 0.187004 0
89.5071 0.782204 0
89.5598 0.739419 0
89.5604 0.681597 0
89.2994 0.103765 0
89.7305 0.804553 0
89.7477 0.822333 0
89.5904 0.462976 0
89.8421 0.647094 0
89.6067 0.37443 0
89.8021 0.788352 0
89.4959 0.238802 0
89.9589 0.918935 0
89.9836 0.888789 0
89.5335 0.189005 0
90.054 0.818121 0
90.2356 0.944596 0
90.148 0.921382 0
90.0317 0.215221 0
90.4438 0.987916 0
90.4874 1.05357 0
89.9874 0.638352 0
90.3811 0.780273 0
90.0473 0.388915 0
90.6819 1.10861 0
90.2194 0.120739 0
90.7454 1.07671 0
90.7394 1.0194 0
90.0396 0.0952293 0
90.6728 0.923162 0
91.0609 1.09116 0
91.1533 1.1013 0
90.6152 0.278177 0
91.2271 1.07462 0
91.275 1.14487 0
90.5969 0.698798 0
91.2845 0.756686 0
90.773 0.269406 0
91.441 1.14284 0
90.7973 0.100505 0
91.587 1.06733 0
91.6767 1.05225 0
90.6278 0.0697759 0
91.4996 0.870429 0
91.9661 0.982582 0
92.1282 0.919334 0
91.0577 0.177092 0
91.9652 0.859821 0
92.2665 0.870898 0
91.5916 0.74311 0
92.0577 0.434183 0
91.1389 0.111057 0
92.0364 0.778725 0
91.1491 0.0409899 0
92.5133 0.765677 0
92.6002 0.61848 0
91.0485 0.038345 0
92.3074 0.306024 0
92.7524 0.336855 0
92.9408 0.202299 0
91.1387 -0.0968621 0
93.0313 0.000237493 0
93.0787 -0.136746 0
91.2837 -0.265871 0
93.0936 -0.166264 0
92.2943 -0.626739 0
91.5652 -0.087577 0
91.3743 0.00447854 0
93.2304 -0.457436 0
92.9896 -0.85947 0
93.4231 -1.0328 0
91.0285 -0.00520812 0
92.7002 -1.31314 0
93.4242 -1.77237 0
90.9818 -0.122627 0
92.5311 -1.28135 0
93.3994 -2.31642 0
91.9699 -1.75499 0
90.9515 -0.655862 0
93.2053 -2.66927 0
93.0661 -2.96504 0
91.9324 -1.10486 0
91.3636 -3.14134 0
89.3136 -2.59919 0
92.7039 -3.00686 0
89.7431 -0.405273 0
92.6867 -3.96253 0
90.0832 7.2957 0
90.8245 6.51688 0
85.368 1.92963 0
89.9761 7.25368 0
87.7174 6.642 0
89.3102 7.88987 0
85.9711 0.757313 0
88.3194 8.09593 0
87.1343 7.97047 0
84.6934 0.964524 0
87.2095 8.49798 0
92.5947 -4.38603 0
89.9884 -0.251636 0
92.3254 -4.73412 0
91.0744 -5.14012 0
90.5178 -4.42435 0
89.0832 -0.268963 0
91.3162 -5.73158 0
85.8908 7.76646 0
90.6551 -7.01768 0
88.826 -1.40015 0
90.3289 -6.78331 0
89.4546 -7.75427 0
83.5162 2.373 0
89.013 -7.61113 0
90.249 -4.23715 0
89.5104 -6.89397 0
87.6315 -5.1036 0
86.6871 -0.838416 0
88.5618 -7.00389 0
87.7586 -7.4176 0
85.2603 8.19532 0
87.8328 -7.42847 0
87.535 -0.454504 0
86.7893 -7.78516 0
86.2712 -8.49338 0
85.9939 -0.564269 0
85.1687 -8.64018 0
85.681 -6.33987 0
83.7798 -0.653534 0
84.1456 -8.79338 0
84.2068 -4.87773 0
85.9517 -3.83748 0
84.6925 -7.52756 0
83.5688 -7.88182 0
86.2689 4.40058 0
82.5849 0.530119 0
85.6693 2.94328 0
84.2995 -0.0733288 0
83.0204 -8.54984 0
84.8788 7.76289 0
82.3064 0.385591 0
84.2958 6.60593 0
82.1455 -8.41418 0
83.86 -1.7209 0
81.4153 -6.14316 0
84.2987 8.84836 0
81.1637 2.03214 0
84.1952 8.77359 0
81.9381 7.31928 0
81.4548 0.415025 0
82.5867 7.69432 0
82.0333 -6.39064 0
83.36 -0.476409 0
81.2831 -8.54262 0
81.2983 -8.30973 0
82.9653 8.26371 0
81.0165 7.87914 0
80.7423 0.0404636 0
82.0922 8.13381 0
80.1822 5.09823 0
80.7496 2.29635 0
80.3502 -8.49068 0
81.2296 -1.10302 0
80.6863 -8.36614 0
79.8865 8.33291 0
79.7152 -7.75792 0
80.3325 -1.081 0
79.9679 -3.40964 0
78.4422 -7.45305 0
81.4764 -4.12085 0
78.2981 -7.20735 0
79.8063 -0.289922 0
77.3767 -6.8863 0
79.4877 2.87338 0
80.092 0.462275 0
79.446 6.99676 0
79.4471 0.115577 0
79.2494 8.20939 0
78.9543 7.70544 0
79.1129 0.184565 0
78.1779 6.74336 0
78.8747 0.133468 0
78.7614 -6.44292 0
79.8051 -0.576452 0
79.9932 6.06434 0
77.969 0.740142 0
77.7281 6.33294 0
77.2578 -6.84726 0
79.9194 -0.232055 0
75.6171 -5.85353 0
77.9262 -0.441549 0
76.4351 -5.76111 0
78.7318 2.5568 0
77.8621 0.119909 0
79.4753 -5.24489 0
77.8651 -0.11313 0
75.7331 -5.42407 0
77.1246 5.71407 0
77.1207 -4.28254 0
77.8969 -0.245727 0
76.025 -4.64488 0
78.1029 3.15128 0
75.9427 2.00108 0
76.6123 4.93859 0
77.7295 -0.98796 0
75.8773 -5.14897 0
77.8526 0.402655 0
76.5539 6.66504 0
77.8452 -2.38495 0
77.863 -0.0846977 0
75.5383 -4.64323 0
76.2756 5.95532 0
77.8961 0.717994 0
76.2055 4.65397 0
75.9335 4.59469 0
77.8483 0.380075 0
75.1287 4.0894 0
74.6856 -4.17241 0
77.8701 -0.296394 0
74.3828 -4.16414 0
76.7104 -1.98635 0
77.8736 -0.202521 0
73.7521 -2.83746 0
75.1983 5.08895 0
77.8285 0.623399 0
76.408 3.25961 0
74.3547 -2.57785 0
77.8005 -0.310994 0
73.7133 -2.34836 0
74.0764 3.74424 0
77.8126 0.267124 0
74.4727 3.52722 0
74.7668 2.87806 0
77.8631 0.0359811 0
73.9386 3.06527 0
75.0351 -1.51682 0
77.7668 -0.543471 0
74.3349 -1.33634 0
73.1698 -0.852131 0
77.1621 -0.92816 0
73.2193 -0.721261 0
76.8792 0.96203 0
77.8248 0.0761267 0
76.0197 2.4443 0
73.7163 2.46814 0
77.7205 0.0598308 0
73.2924 1.5594 0
77.4765 -0.237078 0
77.8544 -0.111409 0
73.2172 -0.237355 0
73.7372 -0.093135 0
77.8417 -0.0661616 0
75.9176 0.308886 0
73.9019 0.528875 0
77.8469 -0.0624494 0
77.3345 -5.6757 0
77.9643 -0.433542 0
77.8574 0.131686 0
78.1969 6.90654 0
79.1528 -7.76328 0
82.2111 -0.949396 0
80.5712 0.999663 0
81.8571 8.64158 0
77.8263 0.279613 0
74.6459 4.8691 0
74.1109 -2.84666 0
77.8242 -0.199755 0
77.9207 -0.572499 0
77.6895 -3.68311 0
78.0021 0.802466 0
77.9232 0.201728 0
77.8381 -0.000948327 0
73.784 2.05905 0
79.4067 0.467639 0
78.4787 1.58088 0
78.8123 -1.37652 0
80.3783 -0.693617 0
86.0835 -1.27008 0
85.6507 -8.48415 0
87.5645 8.09346 0
85.6099 0.468889 0
77.8352 1.66877 0
79.801 8.02651 0
78.7069 -7.10671 0
79.373 -2.32192 0
76.988 -1.46233 0
74.7233 -0.224258 0
76.3086 5.84931 0
78.1602 1.89819 0
77.9946 -1.79352 0
74.9121 -4.64822 0
92.0688 -5.37831 0
88.7604 -0.660882 0
88.33 0.789257 0
92.5191 4.4684 0
77.9976 -0.815921 0
77.8958 -0.0458276 0
77.8903 0.148067 0
79.0394 0.760166 0
83.3008 0.736605 0
82.9291 4.11624 0
81.3546 -1.99578 0
84.5209 -1.75025 0
81.8306 4.91283 0
84.8149 8.32824 0
83.6328 -8.7102 0
82.7292 -1.92493 0
86.8672 1.61332 0
87.9597 5.03417 0
86.5057 -2.79509 0
87.681 -0.0416672 0
90.9249 -0.248268 0
93.3837 -1.28341 0
93.2211 0.482429 0
90.1039 0.0283381 0
91.1174 0.00375419 0
92.642 0.601439 0
92.422 -0.583382 0
91.2587 0.032742 0
79.1156 -1.45217 0
78.5221 -0.575025 0
78.4469 1.24035 0
79.2855 0.955154 0
78.2761 1.23014 0
77.8959 0.242759 0
77.8619 -0.10586 0
78.1922 -1.13081 0
89.7846 0.951534 0
91.0291 1.87443 0
90.1112 -1.1417 0
90.3263 -0.169629 0
76.0478 -0.961141 0
77.8616 -0.155707 0
77.5142 -0.439486 0
77.8833 -0.376947 0
77.8626 0.203808 0
77.9239 0.967925 0
91.7497 0.998664 0
90.9314 0.157468 0
91.0711 -0.00522134 0
91.4811 -1.07562 0
81.8284 -0.039284 0
81.0526 -2.83604 0
82.1398 1.81094 0
80.8032 0.449387 0
77.9443 4.06067 0
77.4808 7.34228 0
77.2139 -6.2835 0
78.3973 -3.24031 0
78.8814 -2.11926 0
77.6158 -2.23598 0
78.0455 4.65386 0
78.3053 2.23128 0
91.2619 0.043835 0
90.9879 0.140623 0
91.1762 -0.0466382 0
92.1502 0.113958 0
79.9069 -5.44225 0
81.0026 -5.27815 0
80.575 4.65664 0
81.1476 8.56191 0
79.217 -3.99477 0
80.393 -2.32141 0
80.2281 3.12808 0
79.3549 1.54302 0
90.9951 1.15846 0
90.4449 0.143483 0
90.6771 -0.0119287 0
90.5798 -1.03956 0
77.3669 1.0182 0
77.852 0.0285022 0
91.1369 -0.0596774 0
91.7806 -0.366346 0
91.4943 0.255363 0
90.974 0.0389895 0
78.9058 -0.959981 0
78.418 -1.33683 0
79.2329 1.74977 0
78.2806 0.736247 0
77.9013 -0.14707 0
78.1885 -0.701316 0
77.9899 0.315326 0
77.8752 0.13618 0
74.2141 1.7176 0
77.0263 1.52789 0
87.2736 -3.15843 0
90.6474 -6.36086 0
91.6194 5.80571 0
86.9832 2.27758 0
76.8915 -2.322 0
74.8472 -2.90855 0
89.7805 0.158573 0
90.0472 0.886263 0
89.0896 0.0739993 0
89.6973 0.841543 0
90.0634 -0.864035 0
89.9077 -0.142457 0
89.4613 -0.701564 0
89.3861 -0.0146467 0
90.8398 -0.217747 0
90.9547 -0.627253 0
90.8048 0.394583 0
90.5658 0.00813366 0
77.866 0.178381 0
77.716 0.54106 0
76.5246 0.452307 0
74.3046 0.847566 0
77.8143 -0.251429 0
77.8484 -0.168917 0
77.4254 0.274057 0
77.3635 -0.753976 0
93.2056 -2.72075 0
90.0321 -1.74705 0
91.0215 2.21441 0
93.3679 1.58106 0
78.0548 -0.0626551 0
78.1671 -0.36464 0
77.9035 0.0542546 0
78.356 0.261669 0
90.2548 -0.207432 0
90.2751 -0.536402 0
90.2998 0.358763 0
89.9142 0.115899 0
88.9076 0.164234 0
89.0881 0.522631 0
89.1071 -0.608476 0
89.0002 -0.146629 0
78.5399 -0.900838 0
79.4959 -2.14307 0
78.9196 1.61755 0
78.5242 1.27557 0
79.2689 2.89029 0
77.6557 1.85627 0
78.1961 -1.92806 0
78.8863 -2.80312 0
91.6106 -0.526052 0
92.5666 0.321555 0
92.7364 -0.317328 0
92.0325 0.56074 0
77.7423 -1.15305 0
77.8662 -1.36938 0
77.8816 1.08611 0
77.4023 1.31125 0
88.9172 0.536846 0
88.634 0.15825 0
88.6945 -0.10085 0
88.8609 -0.456979 0
85.3512 4.27831 0
87.3768 7.14581 0
86.8647 -8.41808 0
86.4123 -3.3522 0
75.3277 -3.43397 0
77.6496 -3.52369 0
84.9708 -3.0706 0
85.6244 -1.10037 0
83.955 0.455945 0
87.3204 3.11263 0
74.929 4.63705 0
76.8078 2.73991 0
89.623 -0.0515519 0
89.7946 -0.547103 0
89.6773 0.360552 0
89.5881 0.098228 0
89.2067 -0.370033 0
88.9779 -1.51489 0
89.5363 2.08741 0
88.5493 0.27269 0
83.3126 1.40119 0
81.5375 0.351697 0
82.6794 -0.338484 0
83.3547 -3.11889 0
91.4564 0.328951 0
91.7365 0.867232 0
91.892 -0.944725 0
91.7827 -0.066074 0
82.3325 -3.84165 0
83.4418 -1.8421 0
82.6482 2.7193 0
85.2353 6.00259 0
88.5212 0.320911 0
88.3989 0.0604248 0
88.5734 -0.0979555 0
88.5115 -0.331866 0
89.1061 -0.183931 0
89.2701 -0.00924561 0
89.243 0.103124 0
89.0715 0.429912 0
80.0363 0.499533 0
79.7889 1.30879 0
80.0566 -1.14974 0
80.9175 -0.321003 0
81.6074 2.83574 0
79.9585 1.95523 0
79.3391 -2.84303 0
78.4901 -2.87117 0
90.9609 -0.477976 0
90.7064 -0.277 0
90.524 0.373374 0
91.4704 0.618252 0
79.963 3.8573 0
80.4703 2.57964 0
79.3941 -0.826971 0
79.2164 -0.29474 0
79.0496 0.266365 0
79.7956 0.890837 0
76.6467 -0.876791 0
77.5991 -1.3516 0
92.5643 -3.63614 0
90.0806 -2.06521 0
89.526 3.75297 0
92.9567 3.69676 0
77.9377 -0.865975 0
77.8911 -0.144054 0
77.8346 0.197583 0
78.0103 0.848899 0
78.282 0.0872117 0
78.3093 0.627511 0
78.4669 -0.343373 0
78.6218 -0.0199149 0
75.5268 -0.269869 0
73.2328 0.151792 0
85.3587 3.2304 0
89.485 2.97629 0
88.1642 -2.51806 0
88.7642 -4.98132 0
77.6667 2.07255 0
77.217 1.15719 0
77.861 -0.0255581 0
77.6986 -0.0514285 0
80.5466 6.85429 0
78.4099 4.06971 0
80.1703 -4.31037 0
79.2062 -8.12817 0
77.434 0.78526 0
77.8013 0.424168 0
90.84 0.524661 0
91.1812 1.14111 0
90.8826 -1.04056 0
90.8186 -0.205264 0
88.7096 -0.118616 0
88.9199 -0.0809274 0
88.8911 0.0693328 0
88.7853 0.395388 0
93.1217 0.404393 0
91.9671 1.36723 0
92.0283 -0.540361 0
93.2537 -0.660187 0