# vtk DataFile Version 3.0
Unstructured Grid for Triangles
ASCII
DATASET UNSTRUCTURED_GRID
POINTS 29612 DOUBLE
-2.72397e-05 1.23686e-06 0
-2.95789e-05 9.5838e-07 0
-2.77865e-05 -3.1235e-07 0
0.0002024 5e-05 0
0.000203975 4.9875e-05 0
0.000205 5e-05 0
0.000203975 -4.9875e-05 0
0.0002024 -5e-05 0
0.000205 -5e-05 0
0.00020295 4.975e-05 0
0.00020295 -4.975e-05 0
0.000201925 4.9625e-05 0
0.000201925 -4.9625e-05 0
-5.29747e-05 -4.79887e-05 0
-5.5e-05 -5e-05 0
-5.24e-05 -5e-05 0
-5.05983e-05 -4.84325e-05 0
-4.98e-05 -5e-05 0
-4.72e-05 -5e-05 0
-4.83864e-05 -4.87761e-05 0
-4.46e-05 -5e-05 0
-4.59e-05 -4.84239e-05 0
-4.29453e-05 -4.24878e-05 0
-4.47486e-05 -4.20717e-05 0
-4.41829e-05 -4.36609e-05 0
-5.12578e-05 -4.62101e-05 0
-4.93077e-05 -4.53594e-05 0
-5.0706e-05 -4.39006e-05 0
-4.19243e-05 -4.77545e-05 0
-4.40307e-05 -4.71837e-05 0
-4.3691e-05 -4.86724e-05 0
-5.16129e-05 -4.20948e-05 0
-4.95355e-05 -4.15432e-05 0
-5.11646e-05 -4.0128e-05 0
-3.94697e-05 -4.81197e-05 0
-4.06302e-05 -4.55143e-05 0
-5.37257e-05 -3.88197e-05 0
-5.31099e-05 -4.07297e-05 0
-5.23982e-05 -3.88328e-05 0
-3.70063e-05 -4.72956e-05 0
-3.68e-05 -5e-05 0
-3.5308e-05 -4.85302e-05 0
-5.072e-05 -3.7867e-05 0
-4.85506e-05 -3.83975e-05 0
-4.90949e-05 -3.59622e-05 0
-3.37127e-05 -4.84331e-05 0
-3.16e-05 -5e-05 0
-3.26495e-05 -4.7415e-05 0
-5.5e-05 -3.5e-05 0
-5.31201e-05 -3.70361e-05 0
-5.28367e-05 -3.46817e-05 0
-3.63898e-05 -4.48809e-05 0
-3.83315e-05 -4.60336e-05 0
-3.26269e-06 -4.15503e-05 0
-5.99662e-06 -4.09556e-05 0
-5.46944e-06 -4.29488e-05 0
-5.29747e-05 4.79887e-05 0
-5.5e-05 5e-05 0
-5.5e-05 4.75e-05 0
-5.5e-05 4.5e-05 0
-5.34834e-05 4.29171e-05 0
-5.26943e-05 4.42611e-05 0
-5.34026e-05 4.60176e-05 0
-5.31099e-05 4.07297e-05 0
-5.11672e-05 4.01178e-05 0
-5.16129e-05 4.20948e-05 0
-5.24e-05 5e-05 0
-5.05983e-05 4.84325e-05 0
-5.31201e-05 3.70361e-05 0
-5.072e-05 3.7867e-05 0
-5.23982e-05 3.88328e-05 0
-4.8341e-05 4.69132e-05 0
-4.83679e-05 4.87539e-05 0
-5.28367e-05 3.46817e-05 0
-5.5e-05 3.25e-05 0
-5.25657e-05 3.28474e-05 0
-4.98e-05 5e-05 0
-5.30382e-05 3.125e-05 0
-4.19243e-05 4.77545e-05 0
-4.40015e-05 4.7335e-05 0
-4.25917e-05 4.63678e-05 0
-4.35138e-05 2.62661e-05 0
-4.14982e-05 2.74462e-05 0
-4.35654e-05 2.85217e-05 0
-4.59e-05 4.84239e-05 0
-4.36852e-05 4.87027e-05 0
-4.46e-05 5e-05 0
-5.33308e-05 2.92503e-05 0
-5.5e-05 2.75e-05 0
-5.23377e-05 2.76953e-05 0
-4.25282e-05 4.46352e-05 0
-4.09368e-05 4.35728e-05 0
-4.06302e-05 4.55143e-05 0
0.0002009 4.95e-05 0
0.0001998 5e-05 0
0.000199875 4.9375e-05 0
0.00019885 4.925e-05 0
0.0001972 5e-05 0
0.000197825 4.9125e-05 0
0.0001968 4.9e-05 0
0.000195775 4.8875e-05 0
0.0001946 5e-05 0
0.00019475 4.875e-05 0
0.000193725 4.8625e-05 0
0.000192 5e-05 0
0.0001927 4.85e-05 0
0.000191675 4.8375e-05 0
0.00019065 4.825e-05 0
0.0001894 5e-05 0
0.000189625 4.8125e-05 0
0.0001886 4.8e-05 0
0.0001868 5e-05 0
0.000187575 4.7875e-05 0
0.00018655 4.775e-05 0
0.000185515 4.8575e-05 0
0.0001842 5e-05 0
0.0001845 4.75e-05 0
0.000185525 4.7625e-05 0
0.000182564 4.829e-05 0
0.0001816 5e-05 0
0.00018245 4.725e-05 0
0.000183475 4.7375e-05 0
0.000181425 4.7125e-05 0
0.000180295 4.82657e-05 0
0.000179 5e-05 0
0.000179375 4.6875e-05 0
0.0001804 4.7e-05 0
0.000178168 4.80619e-05 0
0.0001764 5e-05 0
0.000177325 4.6625e-05 0
0.00017835 4.675e-05 0
0.000176428 4.76631e-05 0
0.0001763 4.65e-05 0
0.0001738 5e-05 0
0.0001751 4.84164e-05 0
0.000175275 4.6375e-05 0
0.000174025 4.75632e-05 0
0.0001712 5e-05 0
0.000172615 4.78449e-05 0
0.0001722 4.6e-05 0
0.000173225 4.6125e-05 0
0.00017015 4.575e-05 0
0.000171243 4.7381e-05 0
0.000169554 4.79999e-05 0
0.0001686 5e-05 0
0.000167507 4.79751e-05 0
0.000168498 4.64861e-05 0
0.000166 5e-05 0
0.00016558 4.71459e-05 0
0.000167135 4.62887e-05 0
0.0001681 4.55e-05 0
0.00016605 4.525e-05 0
0.000167075 4.5375e-05 0
0.000164059 4.61599e-05 0
0.00016394 4.79552e-05 0
0.000162881 4.6615e-05 0
0.000162975 4.4875e-05 0
0.000165025 4.5125e-05 0
0.000164 4.5e-05 0
0.000161754 4.58641e-05 0
0.000161722 4.78101e-05 0
0.000159956 4.58294e-05 0
0.000160925 4.4625e-05 0
0.00016195 4.475e-05 0
0.000157667 4.60322e-05 0
0.000158875 4.4375e-05 0
0.000159194 4.80155e-05 0
0.0001599 4.45e-05 0
0.00015785 4.425e-05 0
0.000155808 4.56757e-05 0
0.000155647 4.76701e-05 0
0.000154059 4.66642e-05 0
0.000153756 4.50083e-05 0
0.000154839 4.50446e-05 0
0.000156825 4.4125e-05 0
0.000151954 4.80508e-05 0
0.000154052 4.8477e-05 0
0.000153 5e-05 0
0.000154775 4.3875e-05 0
0.000152142 4.56625e-05 0
0.000152821 4.45753e-05 0
0.00015375 4.375e-05 0
0.0001504 5e-05 0
0.000149644 4.85168e-05 0
0.000151787 4.43178e-05 0
0.000152725 4.3625e-05 0
0.000150675 4.3375e-05 0
0.0001517 4.35e-05 0
0.000148119 4.50887e-05 0
0.000148072 4.75757e-05 0
0.000146584 4.63516e-05 0
0.000150008 4.6396e-05 0
0.000149351 4.4543e-05 0
0.00015061 4.46252e-05 0
0.0001476 4.3e-05 0
0.000148625 4.3125e-05 0
0.000146492 4.82975e-05 0
0.000144888 4.73562e-05 0
0.000146676 4.44259e-05 0
0.000145255 4.53656e-05 0
0.000145652 4.38669e-05 0
0.000141401 4.79821e-05 0
0.0001426 5e-05 0
0.00014 5e-05 0
0.000144374 4.38862e-05 0
0.00014555 4.275e-05 0
0.0001435 4.25e-05 0
0.000144525 4.2625e-05 0
0.000142746 4.38121e-05 0
0.000141288 4.43191e-05 0
0.000141707 4.32778e-05 0
0.00013921 4.38992e-05 0
0.000140355 4.5932e-05 0
0.000138302 4.5922e-05 0
0.000142912 4.58869e-05 0
0.000140592 4.30037e-05 0
0.00014145 4.225e-05 0
0.000136458 4.5869e-05 0
0.000137106 4.4063e-05 0
0.0001394 4.2e-05 0
0.000138259 4.28915e-05 0
0.000137484 4.77094e-05 0
0.000139166 4.78902e-05 0
0.00013586 4.78984e-05 0
0.000133449 4.78649e-05 0
0.000134717 4.61848e-05 0
0.000137256 4.25134e-05 0
0.000135323 4.24541e-05 0
0.000136325 4.1625e-05 0
0.000136122 4.2876e-05 0
0.000131206 4.47284e-05 0
0.000133168 4.56738e-05 0
0.000131773 4.65243e-05 0
0.000134756 4.40343e-05 0
0.000132747 4.36463e-05 0
0.000133483 4.26786e-05 0
0.000131081 4.1867e-05 0
0.000132382 4.22815e-05 0
0.000131507 4.3122e-05 0
0.000131059 4.80123e-05 0
0.00013325 4.125e-05 0
0.00012915 4.075e-05 0
0.00012982 4.18199e-05 0
0.000128915 4.26216e-05 0
0.000126366 4.47574e-05 0
0.000127331 4.30908e-05 0
0.000128781 4.44872e-05 0
0.000125336 4.28376e-05 0
0.000130218 4.31077e-05 0
0.000127894 4.16344e-05 0
0.000124774 4.69608e-05 0
0.000127668 4.64148e-05 0
0.000126591 4.8331e-05 0
0.000126722 4.18415e-05 0
0.000125768 4.11931e-05 0
0.000124326 4.13546e-05 0
0.00012505 4.025e-05 0
0.000122408 4.50118e-05 0
0.000120276 4.47432e-05 0
0.00012139 4.32235e-05 0
0.000124336 4.44132e-05 0
0.000123056 4.27595e-05 0
0.000122977 4.09049e-05 0
0.00012185 4.69217e-05 0
0.000122676 4.85947e-05 0
0.000120525 4.86094e-05 0
0.000121479 4.13153e-05 0
0.000119547 4.24221e-05 0
0.000120249 4.07448e-05 0
0.000119925 3.9625e-05 0
0.000119346 4.06114e-05 0
0.000117479 4.47279e-05 0
0.000114726 4.45259e-05 0
0.00011571 4.27814e-05 0
0.000119443 4.66611e-05 0
0.000117447 4.21596e-05 0
0.000118421 4.0752e-05 0
0.000117409 4.04437e-05 0
0.000116775 4.70073e-05 0
0.0001179 4.855e-05 0
0.000115473 4.84802e-05 0
0.00011685 3.925e-05 0
0.000117875 3.9375e-05 0
0.000115454 4.00551e-05 0
0.0001148 3.9e-05 0
0.000115825 3.9125e-05 0
0.000111704 4.23398e-05 0
0.000113786 4.26731e-05 0
0.000112589 4.43871e-05 0
0.000113234 4.06671e-05 0
0.000114754 4.13371e-05 0
0.0001106 4.42326e-05 0
0.000109703 4.24261e-05 0
0.00011275 3.875e-05 0
0.000113775 3.8875e-05 0
0.000110211 4.80875e-05 0
0.000108244 4.71951e-05 0
0.000109312 4.58413e-05 0
0.000111755 3.99116e-05 0
0.00010944 3.92972e-05 0
0.000110415 4.05876e-05 0
0.000108839 4.07536e-05 0
0.000106472 4.76905e-05 0
0.000107274 4.57868e-05 0
0.000108011 3.92415e-05 0
0.000106885 4.04365e-05 0
0.000106625 3.88708e-05 0
0.000105286 4.19254e-05 0
0.000105055 3.95469e-05 0
0.000104215 4.39764e-05 0
0.000106346 4.40629e-05 0
0.000100945 4.51249e-05 0
0.000102825 4.5614e-05 0
0.000101189 4.68452e-05 0
0.000107625 3.8125e-05 0
0.000105575 3.7875e-05 0
0.0001066 3.8e-05 0
0.000103352 4.76905e-05 0
0.000101803 4.8465e-05 0
0.000103685 3.89398e-05 0
0.00010245 3.8825e-05 0
0.000103525 3.7625e-05 0
0.000101092 3.99779e-05 0
0.000101267 3.82619e-05 0
0.000101382 4.2025e-05 0
0.000103187 4.05286e-05 0
0.000103359 4.24605e-05 0
9.87383e-05 4.5447e-05 0
9.99411e-05 4.35161e-05 0
9.744e-05 4.33145e-05 0
0.00010045 3.725e-05 0
0.000101475 3.7375e-05 0
9.70845e-05 4.65215e-05 0
9.52614e-05 4.67664e-05 0
9.61768e-05 4.49944e-05 0
9.9729e-05 3.87704e-05 0
9.78901e-05 3.9598e-05 0
9.85823e-05 3.81492e-05 0
9.62289e-05 3.93709e-05 0
9.74259e-05 3.81279e-05 0
9.7375e-05 3.6875e-05 0
9.63045e-05 3.76631e-05 0
9.58e-05 5e-05 0
9.32e-05 5e-05 0
9.47542e-05 4.8457e-05 0
9.49675e-05 3.85246e-05 0
9.36214e-05 3.89472e-05 0
9.40006e-05 3.74906e-05 0
9.66411e-05 4.12573e-05 0
9.44241e-05 4.07079e-05 0
9.03569e-05 4.24993e-05 0
9.21701e-05 4.02409e-05 0
9.27439e-05 4.27744e-05 0
8.89795e-05 4.09067e-05 0
9.03071e-05 4.0248e-05 0
9.25447e-05 3.77721e-05 0
9.3275e-05 3.6375e-05 0
9.07708e-05 3.87127e-05 0
9.11303e-05 3.70839e-05 0
9.11933e-05 4.55145e-05 0
9.30678e-05 4.73279e-05 0
9.11886e-05 4.82603e-05 0
8.87724e-05 3.88076e-05 0
8.99595e-05 3.75116e-05 0
9.02e-05 3.6e-05 0
8.89241e-05 3.6954e-05 0
8.36977e-05 4.59472e-05 0
8.36223e-05 4.83578e-05 0
8.20467e-05 4.74142e-05 0
8.71227e-05 4.03557e-05 0
8.61e-05 3.55e-05 0
8.68368e-05 3.65714e-05 0
8.5484e-05 3.6588e-05 0
8.47735e-05 4.02845e-05 0
8.23121e-05 4.21599e-05 0
8.26582e-05 3.98147e-05 0
8.46943e-05 4.2454e-05 0
8.38832e-05 3.78613e-05 0
8.35569e-05 3.63808e-05 0
8.44098e-05 3.6291e-05 0
8.5075e-05 3.5375e-05 0
8.51465e-05 4.77163e-05 0
8.3025e-05 3.5125e-05 0
8.22824e-05 3.68659e-05 0
8.1446e-05 3.57362e-05 0
8.05884e-05 3.71794e-05 0
7.53471e-05 4.77524e-05 0
7.38313e-05 4.73927e-05 0
7.39102e-05 4.61526e-05 0
7.9826e-05 3.58588e-05 0
7.88607e-05 3.76287e-05 0
7.81733e-05 3.57987e-05 0
8.16783e-05 3.84471e-05 0
8.07975e-05 4.04095e-05 0
7.52138e-05 4.04775e-05 0
7.67682e-05 4.17043e-05 0
7.49617e-05 4.21803e-05 0
7.52903e-05 3.84008e-05 0
7.38293e-05 3.93136e-05 0
[...]
CELL_DATA 58684
VECTORS velocity DOUBLE
74.3053 0.337141 0
87.2063 7.95932e-05 0
87.1797 -1.31006e-05 0
87.2119 -0.00164881 0
87.1843 0.0015854 0
87.2171 -0.00270515 0
87.1903 0.0030751 0
77.8853 -0.00119888 0
77.9028 -0.0247024 0
78.0216 -0.00233513 0
78.1427 -0.00466809 0
78.2102 -0.409852 0
77.9422 -0.109697 0
78.2935 -0.135146 0
77.9193 -0.184781 0
78.5002 -0.170102 0
77.8861 -0.112849 0
78.8728 -0.157584 0
77.9755 -0.317807 0
79.3943 -0.111092 0
77.8982 -0.116108 0
78.8405 -0.370223 0
85.5216 -2.17193 0
77.8642 0.0124781 0
77.87 0.0514825 0
77.8635 0.0249552 0
77.9136 0.142519 0
77.9024 0.0235665 0
77.9066 0.188497 0
78.0183 0.0490377 0
77.8955 0.145419 0
77.9699 0.033449 0
77.8591 0.143841 0
78.3681 0.162606 0
78.0753 1.1343 0
78.2147 0.0687726 0
77.9069 0.179782 0
78.4497 0.354642 0
87.2234 0.000521257 0
87.2288 1.32883e-05 0
87.2375 -0.00582085 0
87.2388 -0.00260334 0
87.2492 6.74118e-05 0
87.2576 -0.00502067 0
87.2596 -0.00729081 0
87.2625 -0.00317917 0
87.271 -0.00014223 0
87.2773 -0.00746965 0
87.2778 -0.00518781 0
87.2872 -0.00062413 0
87.2953 -0.00829502 0
87.2964 -0.00912128 0
87.2986 -0.00475266 0
87.3064 -0.000760238 0
87.3121 -0.00950473 0
87.3122 -0.00736266 0
87.3209 -0.00163502 0
87.3293 -0.0118464 0
87.33 -0.0117609 0
87.3321 -0.00608438 0
87.3421 -0.000558691 0
87.3439 -0.0145385 0
87.3511 -0.00954233 0
87.3618 -0.00111734 0
87.3627 -0.0173624 0
87.3645 -0.0144414 0
87.3722 -0.0119592 0
87.3788 -0.00135053 0
87.3796 -0.017233 0
87.3872 -0.0128208 0
87.3954 -0.00204184 0
87.396 -0.0195395 0
87.4018 -0.0145844 0
87.4088 -0.0234795 0
87.4164 -0.00114602 0
87.419 -0.017797 0
87.4239 -0.0113503 0
87.4351 -0.00227611 0
87.4371 -0.024645 0
87.4564 -0.0203413 0
87.4408 -0.0199356 0
87.4575 -0.00180337 0
87.4646 -0.0127886 0
87.4596 -0.0251869 0
87.4858 -0.0157138 0
87.4813 -0.0211103 0
87.4794 -0.0289902 0
87.4901 -0.0347875 0
87.5085 -0.0223822 0
87.5224 -0.0317914 0
87.501 -0.02717 0
87.5162 -0.0387593 0
87.5317 -0.0295359 0
87.5283 -0.0296874 0
87.5368 -0.0410524 0
87.5655 -0.0386333 0
87.5485 -0.032461 0
87.5569 -0.0434616 0
87.5734 -0.0500664 0
87.5773 -0.0374037 0
87.5999 -0.0453473 0
87.5809 -0.0404533 0
87.6012 -0.0131757 0
87.6053 -0.0508083 0
87.6227 -0.0481752 0
87.6152 -0.052046 0
87.6216 -0.0143387 0
87.629 -0.0556424 0
87.644 -0.0612005 0
87.6568 -0.0349577 0
87.6544 -0.0374082 0
87.6419 -0.050552 0
87.6735 -0.0656061 0
87.6692 -0.0269038 0
87.6988 -0.0601235 0
87.6852 -0.0389123 0
87.7132 -0.00364891 0
87.7092 -0.0684671 0
87.7225 -0.0771504 0
87.7496 -0.0688982 0
87.764 -0.052173 0
87.7225 -0.0408434 0
87.7581 -0.0785083 0
87.7856 -0.0530906 0
87.7844 -0.0821459 0
87.7572 -0.0294348 0
87.7955 -0.0747401 0
87.8014 -0.0287705 0
87.8072 -0.0858925 0
87.8313 -0.0982321 0
87.8548 -0.0584424 0
87.8526 -0.0820588 0
87.8234 -0.0385265 0
87.888 -0.105695 0
87.8338 -0.0309696 0
87.8705 -0.10537 0
87.9274 -0.118498 0
87.9342 -0.0837274 0
87.9483 -0.101098 0
87.9141 -0.0989931 0
87.9399 -0.108882 0
87.902 -0.0461761 0
87.9778 -0.124899 0
88.0011 -0.137597 0
88.0213 -0.0900378 0
87.9523 -0.0663429 0
87.9946 -0.117817 0
88.0131 -0.138275 0
87.9694 -0.0280223 0
88.0721 -0.149206 0
88.0842 -0.164205 0
88.1118 -0.10166 0
88.0352 -0.0869541 0
88.0938 -0.138135 0
88.113 -0.164735 0
88.05 -0.0300311 0
88.1304 -0.189745 0
88.1732 -0.203215 0
88.1778 -0.143319 0
88.1789 -0.166061 0
88.2182 -0.152288 0
88.2084 -0.210759 0
88.1938 -0.0557883 0
88.2159 -0.198687 0
88.2787 -0.203745 0
88.2429 -0.0668578 0
88.3364 -0.241222 0
88.3575 -0.223157 0
88.3353 -0.142682 0
88.3845 -0.109369 0
88.3409 -0.247342 0
88.3744 -0.271783 0
88.3578 -0.0556217 0
88.4353 -0.277322 0
88.4775 -0.284539 0
88.4039 -0.204299 0
88.4545 -0.130586 0
88.4877 -0.169085 0
88.5071 -0.324532 0
88.5256 -0.111774 0
88.5618 -0.304745 0
88.5886 -0.299531 0
88.6116 -0.349409 0
88.5518 -0.00587983 0
88.6995 -0.349258 0
88.5944 -0.270091 0
88.698 -0.245581 0
88.7595 -0.286784 0
88.7447 -0.388092 0
88.7932 -0.392058 0
88.6575 -0.0887285 0
88.8255 -0.381974 0
88.8513 -0.439575 0
88.8626 -0.422943 0
88.9288 -0.0989369 0
88.8435 -0.336601 0
89.0019 -0.488385 0
89.0385 -0.370872 0
88.9661 -0.312911 0
89.0536 -0.516074 0
89.0409 -0.509568 0
88.9202 -0.0888177 0
89.1328 -0.567431 0
89.166 -0.533871 0
89.3121 -0.10483 0
89.2546 -0.586255 0
89.1121 -0.410605 0
89.3371 -0.376223 0
89.3969 -0.485092 0
89.3023 -0.532349 0
89.3274 -0.636961 0
89.3651 -0.230627 0
89.4836 -0.617111 0
89.4441 -0.708522 0
89.617 -0.721912 0
89.5599 -0.0121593 0
89.5703 -0.594211 0
89.6278 -0.74711 0
89.4658 -0.184342 0
89.6865 -0.786213 0
89.7655 -0.455035 0
89.7301 -0.821982 0
89.9102 -0.256075 0
89.8841 -0.711642 0
89.8535 -0.836585 0
89.7815 -0.128434 0
89.9866 -0.864536 0
90.1537 -0.844886 0
90.0067 -0.718054 0
90.0442 -0.434652 0
90.186 -0.970267 0
90.1827 -0.38173 0
90.3263 -0.0657645 0
90.131 -0.764971 0
90.2944 -0.962611 0
90.379 -1.03329 0
90.391 -0.325651 0
90.5138 -0.894288 0
90.6627 -0.980839 0
90.4577 -0.109746 0
90.8025 -0.955968 0
90.7217 -1.06589 0
90.5852 -0.788842 0
90.6324 -0.381487 0
90.743 -0.446832 0
90.8686 -1.07396 0
90.7802 -0.00749675 0
90.9719 -1.14563 0
91.1018 -1.08917 0
91.0595 -1.14568 0
91.0143 -0.250693 0
91.1618 -0.935088 0
91.4037 -0.951006 0
90.9721 -0.00560628 0
91.4933 -1.1286 0
91.6643 -0.961251 0
91.3192 -0.695069 0
91.1388 -0.287664 0
91.6611 -1.08583 0
91.2997 -0.357291 0
91.086 -0.0172616 0
91.5873 -0.731975 0
91.917 -0.990363 0
92.0795 -0.925617 0
91.2619 -0.0782067 0
92.0248 -0.633056 0
92.1648 -0.830351 0
91.1107 0.0295425 0
92.3012 -0.819835 0
92.4855 -0.688977 0
92.1055 -0.24544 0
90.847 0.00895801 0
92.6385 -0.463561 0
91.7667 0.191689 0
91.9962 0.297822 0
92.5098 -0.30849 0
92.2862 -0.0421584 0
92.9621 -0.0712886 0
90.9628 0.37019 0
92.9478 -0.175879 0
92.491 0.40575 0
93.1412 0.472471 0
90.8831 0.106986 0
93.089 1.18259 0
92.8563 1.41677 0
89.4661 0.198205 0
93.3169 0.869058 0
93.2101 1.35488 0
90.8394 1.47731 0
90.6007 0.704079 0
92.1455 1.10772 0
93.1021 1.89341 0
89.7219 0.33086 0
92.596 2.78996 0
93.2795 2.13101 0
93.2912 2.36031 0
88.9346 1.41756 0
91.6098 2.92272 0
92.6458 3.17951 0
88.9208 0.232566 0
92.4568 3.68433 0
92.1048 3.56649 0
91.1167 5.20076 0
86.5887 0.397571 0
92.2647 4.89566 0
90.263 3.53182 0
88.3792 1.56906 0
87.9768 2.99305 0
92.025 5.4048 0
90.8758 5.85779 0
87.0338 0.609875 0
90.9468 6.68618 0
87.1963 -0.000175387 0
87.2019 -7.23194e-05 0
87.2096 0.00511716 0
87.2109 0.00224896 0
87.2206 -6.18773e-05 0
87.2286 0.00478169 0
87.2304 0.00631335 0
87.2337 0.0022455 0
87.2413 0.000200374 0
87.2474 0.00725378 0
87.2478 0.00464102 0
87.2567 0.000589837 0
87.2644 0.00787719 0
87.2653 0.00873561 0
87.2674 0.00456625 0
87.2752 0.000733962 0
87.2806 0.00935275 0
87.2809 0.00711427 0
87.2895 0.00162169 0
87.2977 0.0115981 0
87.2985 0.0115451 0
87.3094 0.0152819 0
87.3006 0.00591667 0
87.3164 0.00953194 0
87.3284 0.0151476 0
87.3194 0.00963179 0
87.3332 0.0145838 0
87.3409 0.0120378 0
87.3472 0.0189171 0
87.3375 0.00959698 0
87.3559 0.013006 0
87.3634 0.0211199 0
87.3552 0.0101266 0
87.378 0.0242063 0
87.3807 0.0224271 0
87.3857 0.0172105 0
87.3738 0.0123391 0
87.3883 0.0182024 0
87.4034 0.0178778 0
87.3933 0.0116157 0
87.4176 0.0300733 0
87.4162 0.0115467 0
87.4267 0.0206447 0
87.4133 0.0154469 0
87.43 0.0255262 0
87.4503 0.0293195 0
87.4563 0.0160315 0
87.4461 0.0265921 0
87.4663 0.0315689 0
87.4683 0.0346745 0
87.4887 0.018188 0
87.4798 0.0225261 0
87.4935 0.0319422 0
87.5069 0.0443136 0
87.5115 0.0217111 0
87.5182 0.035785 0
87.5263 0.0463649 0
87.5355 0.0267931 0
87.5195 0.0325389 0
87.5456 0.0510234 0
87.5472 0.048775 0
87.5531 0.0312023 0
87.5628 0.0224293 0
87.5721 0.0451088 0
87.5212 0.0142993 0
87.5875 0.0524834 0
87.6165 0.0622707 0
87.6003 0.0525097 0
87.5862 0.0316137 0
87.6268 0.0625406 0
87.6327 0.0558355 0
87.6437 0.0272021 0
87.6157 0.0513902 0
87.6518 0.058392 0
87.6664 0.0671191 0
87.6199 0.0161893 0
87.6542 0.0480477 0
87.6975 0.0775187 0
87.6615 0.0396069 0
87.7068 0.0693241 0
87.7317 0.0816528 0
87.7078 0.0598415 0
87.7198 0.0248549 0
87.7391 0.0713936 0
87.7559 0.0837993 0
87.7307 0.0210107 0
87.776 0.0915954 0
87.7436 0.0661033 0
87.7939 0.0767875 0
87.7569 0.0526601 0
87.8043 0.0983403 0
87.8551 0.118394 0
87.8094 0.0305179 0
87.8139 0.0807316 0
87.877 0.125392 0
87.8526 0.0893634 0
87.8 0.0374781 0
87.8898 0.117129 0
87.9076 0.122935 0
87.8618 0.0304178 0
87.9028 0.0556849 0
87.933 0.107966 0
87.9512 0.142251 0
87.8829 0.0753925 0
87.9763 0.138875 0
87.9935 0.147789 0
87.9828 0.0513386 0
87.9699 0.0921364 0
88.0344 0.164757 0
88.0255 0.140086 0
87.9324 0.0459148 0
88.0482 0.157578 0
88.0902 0.169447 0
88.0564 0.0676801 0
88.0591 0.144095 0
88.1406 0.201419 0
88.1244 0.153899 0
88.0088 0.048924 0
88.1604 0.189096 0
88.218 0.228948 0
88.1036 0.0661731 0
88.2018 0.182336 0
88.1733 0.085639 0
88.2368 0.190768 0
88.1559 0.107465 0
88.2693 0.242922 0
88.3164 0.243678 0
88.2194 0.0670202 0
88.3067 0.237236 0
88.3741 0.274279 0
88.3178 0.0709664 0
88.2777 0.199351 0
88.3604 0.234111 0
88.4144 0.278445 0
88.2955 0.0418449 0
88.4215 0.253931 0
88.5123 0.329164 0
88.4892 0.27618 0
88.4202 0.0840824 0
88.5531 0.288121 0
88.3813 0.106742 0
88.4218 0.243178 0
88.5477 0.319311 0
88.6439 0.363065 0
88.6509 0.37147 0
88.3944 0.00725167 0
88.7392 0.422884 0
88.7481 0.412277 0
88.7645 0.364326 0
88.6986 0.180024 0
88.7931 0.197192 0
88.7817 0.408051 0
88.5665 0.111172 0
88.8918 0.461847 0
88.8812 0.452052 0
88.8846 0.406553 0
88.776 0.117912 0
88.9586 0.454256 0
89.0738 0.565534 0
88.9311 0.212069 0
88.8843 0.225819 0
89.0303 0.457449 0
89.1858 0.590662 0
88.8107 0.140047 0
89.2217 0.623522 0
89.2559 0.608265 0
89.0708 0.119887 0
89.3851 0.696094 0
89.4153 0.66919 0
89.4752 0.578037 0
89.2644 0.254952 0
89.2373 0.288735 0
89.3979 0.646793 0
89.1471 0.186264 0
89.5536 0.771432 0
89.6024 0.73009 0
89.5994 0.67357 0
89.3449 0.102815 0
89.7632 0.795227 0
89.7785 0.812948 0
89.6255 0.458129 0
89.867 0.641033 0
89.6396 0.371517 0
89.8296 0.780454 0
89.5336 0.236491 0
89.9798 0.910458 0
90.0021 0.881644 0
89.5668 0.186958 0
90.0686 0.812379 0
90.2428 0.938883 0
90.1592 0.915205 0
90.0431 0.214121 0
90.444 0.984143 0
90.4865 1.04947 0
90.0036 0.634679 0
90.3815 0.778766 0
90.0593 0.387325 0
90.6748 1.10642 0
90.2217 0.120273 0
90.7361 1.07648 0
90.7297 1.02088 0
90.048 0.095231 0
90.6627 0.923958 0
91.0438 1.0949 0
91.1344 1.10535 0
90.6047 0.277932 0
91.2059 1.07986 0
91.254 1.15098 0
90.5897 0.699565 0
91.2613 0.761464 0
90.7565 0.270343 0
91.4178 1.15047 0
90.7785 0.100858 0
91.5618 1.07556 0
91.6501 1.06058 0
90.6143 0.0701542 0
91.472 0.877357 0
91.9361 0.992009 0
92.0975 0.928507 0
91.031 0.178339 0
91.9343 0.869144 0
92.2341 0.880325 0
91.5636 0.74885 0
92.0216 0.439471 0
91.1073 0.112585 0
92.0042 0.787373 0
91.1136 0.0414714 0
92.4792 0.774482 0
92.5649 0.626298 0
91.0173 0.0389774 0
92.2677 0.311116 0
92.7138 0.342311 0
92.9012 0.206819 0
91.0907 -0.0966829 0
92.9899 0.00316358 0
93.0353 -0.134675 0
91.2329 -0.265492 0
93.0497 -0.164679 0
92.2432 -0.626436 0
91.5218 -0.0858906 0
91.3322 0.00545083 0
93.1836 -0.457766 0
92.9394 -0.860158 0
93.3714 -1.03518 0
90.9802 -0.0052126 0
92.6437 -1.31505 0
93.3671 -1.7763 0
90.9286 -0.122696 0
92.4764 -1.28337 0
93.3388 -2.32048 0
91.9086 -1.7566 0
90.8945 -0.656337 0
93.1429 -2.67321 0
93.0012 -2.96882 0
91.8764 -1.10566 0
91.2959 -3.14255 0
89.2431 -2.59901 0
92.6378 -3.00927 0
89.6783 -0.405739 0
92.6172 -3.96512 0
90.0089 7.29062 0
90.7501 6.51352 0
85.296 1.92781 0
89.9017 7.24827 0
87.6441 6.63598 0
89.2364 7.88335 0
85.8985 0.756514 0
88.2463 8.08863 0
87.0623 7.96256 0
84.6229 0.963242 0
87.1378 8.48974 0
92.5239 -4.3873 0
89.926 -0.251834 0
92.2532 -4.73517 0
91.0014 -5.13943 0
90.4463 -4.42376 0
89.0151 -0.268399 0
91.2425 -5.73048 0
85.8196 7.758 0
90.5805 -7.01394 0
88.7555 -1.40007 0
90.2541 -6.77989 0
89.3804 -7.74878 0
83.4481 2.36985 0
88.939 -7.60523 0
90.1764 -4.23672 0
89.4353 -6.88902 0
87.5577 -5.10003 0
86.6153 -0.838437 0
88.4877 -6.99851 0
87.6851 -7.41107 0
85.1904 8.18638 0
87.759 -7.4223 0
87.4631 -0.454364 0
86.7166 -7.77741 0
86.1997 -8.48488 0
85.9218 -0.563932 0
85.099 -8.63066 0
85.609 -6.33302 0
83.7108 -0.653187 0
84.0769 -8.78329 0
84.1374 -4.8717 0
85.8796 -3.83407 0
84.6221 -7.51912 0
83.5009 -7.87201 0
86.1967 4.39659 0
82.5195 0.529336 0
85.5978 2.94033 0
84.2293 -0.0732204 0
82.9537 -8.53936 0
84.8092 7.75359 0
82.2417 0.385101 0
84.2268 6.5977 0
82.0803 -8.40337 0
83.7913 -1.71853 0
81.3519 -6.13455 0
84.2301 8.83831 0
81.1038 2.02832 0
84.1268 8.76334 0
81.8742 7.30903 0
81.3943 0.414082 0
82.5206 7.68443 0
81.9683 -6.38205 0
83.2921 -0.475368 0
81.2194 -8.53179 0
81.235 -8.29885 0
82.8987 8.25353 0
80.954 7.86861 0
80.6856 0.0407758 0
82.0273 8.12336 0
80.1248 5.09011 0
80.6917 2.29181 0
80.2887 -8.47957 0
81.1706 -1.101 0
80.6244 -8.35497 0
79.8254 8.3219 0
79.655 -7.7474 0
80.2785 -1.07906 0
79.9128 -3.40368 0
78.3847 -7.44238 0
81.4142 -4.11451 0
78.2411 -7.1969 0
79.7572 -0.289735 0
77.3214 -6.87636 0
79.4367 2.86842 0
80.04 0.461571 0
79.386 6.98675 0
79.4022 0.115727 0
79.1893 8.19856 0
78.8953 7.69473 0
79.0718 0.1847 0
78.1214 6.73371 0
78.8371 0.133366 0
78.7049 -6.43343 0
79.7559 -0.575614 0
79.9347 6.05544 0
77.9506 0.738976 0
77.6722 6.32337 0
77.2032 -6.83731 0
79.8699 -0.231378 0
75.5655 -5.8452 0
77.9144 -0.441501 0
76.3828 -5.7529 0
78.6866 2.55255 0
77.8603 0.120172 0
79.419 -5.2365 0
77.863 -0.113139 0
75.6822 -5.41625 0
77.0709 5.70526 0
77.0712 -4.27532 0
77.8907 -0.24493 0
75.9757 -4.63789 0
78.056 3.14635 0
75.9 1.99795 0
76.5611 4.93131 0
77.7047 -0.986695 0
75.8272 -5.14129 0
77.8427 0.402647 0
76.5 6.65574 0
77.8043 -2.3812 0
77.8615 -0.0846187 0
75.4897 -4.63657 0
76.2228 5.94696 0
77.8794 0.717718 0
76.1562 4.64705 0
75.8837 4.5875 0
77.8378 0.380454 0
75.0811 4.08379 0
74.6374 -4.16608 0
77.8623 -0.296096 0
74.3351 -4.15818 0
76.6695 -1.98254 0
77.8684 -0.202125 0
73.7058 -2.83343 0
75.1493 5.0819 0
77.8095 0.62257 0
76.3633 3.25466 0
74.3092 -2.57406 0
77.7874 -0.311345 0
73.6669 -2.34482 0
74.0295 3.73904 0
77.7988 0.26662 0
74.4259 3.52229 0
74.7203 2.87373 0
77.8611 0.035645 0
73.892 3.06103 0
74.9911 -1.51459 0
77.7483 -0.542588 0
74.2895 -1.33446 0
73.1238 -0.850524 0
77.1296 -0.92654 0
73.1733 -0.720239 0
76.844 0.960601 0
77.8159 0.0767163 0
75.976 2.44004 0
73.6703 2.46498 0
77.7041 0.0596276 0
73.2467 1.55704 0
77.451 -0.236527 0
77.8507 -0.111675 0
73.1714 -0.23692 0
73.6915 -0.0929248 0
77.8338 -0.0661353 0
75.8771 0.308375 0
73.8568 0.527927 0
77.8411 -0.0623323 0
77.2821 -5.66724 0
77.9507 -0.433284 0
77.8537 0.132097 0
78.1396 6.89635 0
79.0935 -7.75278 0
82.1473 -0.947439 0
80.5155 0.99796 0
81.7925 8.63066 0
77.8178 0.279685 0
74.5977 4.86246 0
74.0644 -2.84244 0
77.8193 -0.200344 0
77.9055 -0.572656 0
77.6417 -3.67658 0
77.9819 0.80199 0
77.9181 0.201174 0
77.8288 -0.00079778 0
73.7383 2.05633 0
79.3617 0.466851 0
78.4414 1.57824 0
78.7721 -1.37442 0
80.3244 -0.69223 0
86.0117 -1.26936 0
85.5803 -8.47516 0
87.4924 8.08574 0
85.5382 0.468685 0
77.8008 1.66629 0
79.7401 8.01559 0
78.6498 -7.09626 0
79.324 -2.31791 0
76.9522 -1.4605 0
74.6793 -0.223339 0
76.2564 5.84099 0
78.1241 1.89491 0
77.9599 -1.79102 0
74.8639 -4.64175 0
91.9961 -5.37782 0
88.6913 -0.660651 0
88.259 0.789841 0
92.449 4.46964 0
77.9773 -0.815431 0
77.8907 -0.0454094 0
77.8834 0.148202 0
78.9988 0.758644 0
83.2336 0.735654 0
82.8624 4.11127 0
81.294 -1.99233 0
84.4506 -1.74805 0
81.7672 4.90602 0
84.7459 8.31879 0
83.5647 -8.70011 0
82.6634 -1.92204 0
86.795 1.61201 0
87.8866 5.03062 0
86.4331 -2.79291 0
87.6098 -0.0415128 0
90.8705 -0.248041 0
93.3303 -1.28618 0
93.1739 0.482914 0
90.042 0.0277672 0
91.0798 0.00395777 0
92.6065 0.6088 0
92.3855 -0.589694 0
91.214 0.0319318 0
79.0717 -1.44959 0
78.4904 -0.574465 0
78.4121 1.23851 0
79.2413 0.952953 0
78.2449 1.22817 0
77.8898 0.242075 0
77.8599 -0.106247 0
78.1641 -1.12912 0
89.718 0.951456 0
90.9639 1.87502 0
90.0463 -1.14188 0
90.2664 -0.169472 0
76.0077 -0.95999 0
77.8532 -0.155767 0
77.4899 -0.439445 0
77.8729 -0.376278 0
77.8571 0.204366 0
77.8998 0.967467 0
91.7213 1.00738 0
90.9091 0.158332 0
91.0376 -0.00548327 0
91.4577 -1.08223 0
81.7657 -0.0397484 0
80.9931 -2.83113 0
82.0759 1.80814 0
80.7464 0.448598 0
77.8947 4.05375 0
77.4246 7.33214 0
77.1603 -6.27408 0
78.351 -3.2344 0
78.8377 -2.11525 0
77.5761 -2.23268 0
77.9938 4.64672 0
78.2645 2.22788 0
91.2172 0.0431767 0
90.9367 0.140441 0
91.13 -0.046682 0
92.1096 0.117931 0
79.848 -5.43418 0
80.9408 -5.27035 0
80.5161 4.6494 0
81.0842 8.55091 0
79.1637 -3.98796 0
80.3368 -2.31755 0
80.1725 3.123 0
79.3087 1.53983 0
90.9801 1.16038 0
90.4386 0.144171 0
90.6614 -0.0121285 0
90.5758 -1.03843 0
77.336 1.01652 0
77.8475 0.0288806 0
91.1025 -0.0605085 0
91.7459 -0.370236 0
91.4607 0.258132 0
90.9463 0.0395428 0
78.8663 -0.958157 0
78.3836 -1.33457 0
79.1874 1.74625 0
78.2528 0.73572 0
77.8963 -0.1471 0
78.1656 -0.700267 0
77.9758 0.315375 0
77.8706 0.136267 0
74.1686 1.7154 0
76.99 1.52585 0
87.2004 -3.15607 0
90.5731 -6.35798 0
91.5457 5.80373 0
86.9098 2.27657 0
76.8497 -2.31768 0
74.8016 -2.90421 0
89.8031 0.156674 0
90.0624 0.879842 0
89.1476 0.0737794 0
89.7318 0.831375 0
90.0802 -0.856841 0
89.9243 -0.141804 0
89.5101 -0.693464 0
89.4275 -0.0145644 0
90.8204 -0.218935 0
90.9386 -0.629409 0
90.7886 0.396114 0
90.5543 0.00831587 0
77.86 0.178766 0
77.6961 0.540289 0
76.4877 0.452055 0
74.26 0.846664 0
77.801 -0.250876 0
77.8432 -0.169286 0
77.3991 0.274282 0
77.3337 -0.752384 0
93.1424 -2.72513 0
89.965 -1.74728 0
90.9543 2.21577 0
93.3116 1.58472 0
78.0381 -0.0630146 0
78.145 -0.364875 0
77.8973 0.0536459 0
78.3291 0.261392 0
90.2579 -0.20715 0
90.2802 -0.534694 0
90.301 0.358277 0
89.9299 0.115447 0
88.9809 0.163818 0
89.1558 0.516298 0
89.1803 -0.602033 0
89.0672 -0.145773 0
78.5055 -0.899674 0
79.4468 -2.13881 0
78.8769 1.61471 0
78.4887 1.2737 0
79.219 2.88514 0
77.6186 1.85337 0
78.1594 -1.92505 0
78.8392 -2.7978 0
91.5593 -0.525834 0
92.5272 0.326748 0
92.6976 -0.322133 0
91.9819 0.560362 0
77.7146 -1.15097 0
77.8356 -1.36727 0
77.855 1.08458 0
77.3689 1.30898 0
89.0019 0.532344 0
88.7261 0.158378 0
88.7823 -0.100189 0
88.9487 -0.454331 0
85.2799 4.27389 0
87.3037 7.13908 0
86.7927 -8.41003 0
86.3397 -3.34915 0
75.2811 -3.42872 0
77.6026 -3.5181 0
84.8994 -3.06708 0
85.5526 -1.09941 0
83.8851 0.454902 0
87.2481 3.11066 0
74.8809 4.6308 0
76.7652 2.73567 0
89.6508 -0.0517147 0
89.8214 -0.542351 0
89.7054 0.357268 0
89.6187 0.0966176 0
89.1397 -0.369916 0
88.9085 -1.51461 0
89.467 2.08748 0
88.48 0.272306 0
83.2446 1.39899 0
81.4763 0.351163 0
82.6141 -0.337877 0
83.2867 -3.11516 0
91.4233 0.332138 0
91.7065 0.875631 0
91.8627 -0.95269 0
91.7417 -0.0686719 0
82.2674 -3.83613 0
83.3736 -1.8395 0
82.582 2.71524 0
85.1641 5.99561 0
88.6279 0.322357 0
88.5054 0.0610377 0
88.6679 -0.097559 0
88.6221 -0.334638 0
89.167 -0.181963 0
89.3182 -0.00942211 0
89.2931 0.101712 0
89.1394 0.425805 0
79.9853 0.498521 0
79.7395 1.306 0
80.0043 -1.14792 0
80.8606 -0.320156 0
81.5452 2.83105 0
79.906 1.95152 0
79.2878 -2.83815 0
78.4455 -2.86589 0
90.9054 -0.477923 0
90.6501 -0.276857 0
90.4649 0.373482 0
91.4169 0.61788 0
79.9077 3.85105 0
80.4138 2.57476 0
79.3489 -0.825482 0
79.1737 -0.294095 0
79.0091 0.266041 0
79.7458 0.88938 0
76.6097 -0.875367 0
77.5676 -1.34943 0
92.4969 -3.6386 0
90.0121 -2.06553 0
89.4536 3.75204 0
92.8894 3.69945 0
77.9167 -0.865492 0
77.8876 -0.143547 0
77.8293 0.198123 0
77.9895 0.847669 0
78.2567 0.0872469 0
78.2826 0.6265 0
78.4372 -0.343246 0
78.5887 -0.01999 0
75.4847 -0.269091 0
73.1871 0.15168 0
85.2874 3.22717 0
89.4139 2.97589 0
88.0918 -2.51696 0
88.6908 -4.97817 0
77.6289 2.06903 0
77.1833 1.15502 0
77.8596 -0.025419 0
77.681 -0.0509316 0
80.4852 6.8446 0
78.3596 4.06273 0
80.1124 -4.30347 0
79.147 -8.11728 0
77.407 0.784836 0
77.7883 0.424183 0
90.8235 0.526784 0
91.162 1.14613 0
90.8705 -1.04187 0
90.8008 -0.205993 0
88.7953 -0.117807 0
88.9896 -0.0802153 0
88.9636 0.0687691 0
88.8744 0.393225 0
93.0751 0.403579 0
91.908 1.36823 0
91.9775 -0.53976 0
93.205 -0.66101 0