# vtk DataFile Version 3.0
Unstructured Grid for Triangles
ASCII
DATASET UNSTRUCTURED_GRID
POINTS 29612 DOUBLE
-2.72397e-05 1.23686e-06 0
-2.95789e-05 9.5838e-07 0
-2.77865e-05 -3.1235e-07 0
0.0002024 5e-05 0
0.000203975 4.9875e-05 0
0.000205 5e-05 0
0.000203975 -4.9875e-05 0
0.0002024 -5e-05 0
0.000205 -5e-05 0
0.00020295 4.975e-05 0
0.00020295 -4.975e-05 0
0.000201925 4.9625e-05 0
0.000201925 -4.9625e-05 0
-5.29747e-05 -4.79887e-05 0
-5.5e-05 -5e-05 0
-5.24e-05 -5e-05 0
-5.05983e-05 -4.84325e-05 0
-4.98e-05 -5e-05 0
-4.72e-05 -5e-05 0
-4.83864e-05 -4.87761e-05 0
-4.46e-05 -5e-05 0
-4.59e-05 -4.84239e-05 0
-4.29453e-05 -4.24878e-05 0
-4.47486e-05 -4.20717e-05 0
-4.41829e-05 -4.36609e-05 0
-5.12578e-05 -4.62101e-05 0
-4.93077e-05 -4.53594e-05 0
-5.0706e-05 -4.39006e-05 0
-4.19243e-05 -4.77545e-05 0
-4.40307e-05 -4.71837e-05 0
-4.3691e-05 -4.86724e-05 0
-5.16129e-05 -4.20948e-05 0
-4.95355e-05 -4.15432e-05 0
-5.11646e-05 -4.0128e-05 0
-3.94697e-05 -4.81197e-05 0
-4.06302e-05 -4.55143e-05 0
-5.37257e-05 -3.88197e-05 0
-5.31099e-05 -4.07297e-05 0
-5.23982e-05 -3.88328e-05 0
-3.70063e-05 -4.72956e-05 0
-3.68e-05 -5e-05 0
-3.5308e-05 -4.85302e-05 0
-5.072e-05 -3.7867e-05 0
-4.85506e-05 -3.83975e-05 0
-4.90949e-05 -3.59622e-05 0
-3.37127e-05 -4.84331e-05 0
-3.16e-05 -5e-05 0
-3.26495e-05 -4.7415e-05 0
-5.5e-05 -3.5e-05 0
-5.31201e-05 -3.70361e-05 0
-5.28367e-05 -3.46817e-05 0
-3.63898e-05 -4.48809e-05 0
-3.83315e-05 -4.60336e-05 0
-3.26269e-06 -4.15503e-05 0
-5.99662e-06 -4.09556e-05 0
-5.46944e-06 -4.29488e-05 0
-5.29747e-05 4.79887e-05 0
-5.5e-05 5e-05 0
-5.5e-05 4.75e-05 0
-5.5e-05 4.5e-05 0
-5.34834e-05 4.29171e-05 0
-5.26943e-05 4.42611e-05 0
-5.34026e-05 4.60176e-05 0
-5.31099e-05 4.07297e-05 0
-5.11672e-05 4.01178e-05 0
-5.16129e-05 4.20948e-05 0
-5.24e-05 5e-05 0
-5.05983e-05 4.84325e-05 0
-5.31201e-05 3.70361e-05 0
-5.072e-05 3.7867e-05 0
-5.23982e-05 3.88328e-05 0
-4.8341e-05 4.69132e-05 0
-4.83679e-05 4.87539e-05 0
-5.28367e-05 3.46817e-05 0
-5.5e-05 3.25e-05 0
-5.25657e-05 3.28474e-05 0
-4.98e-05 5e-05 0
-5.30382e-05 3.125e-05 0
-4.19243e-05 4.77545e-05 0
-4.40015e-05 4.7335e-05 0
-4.25917e-05 4.63678e-05 0
-4.35138e-05 2.62661e-05 0
-4.14982e-05 2.74462e-05 0
-4.35654e-05 2.85217e-05 0
-4.59e-05 4.84239e-05 0
-4.36852e-05 4.87027e-05 0
-4.46e-05 5e-05 0
-5.33308e-05 2.92503e-05 0
-5.5e-05 2.75e-05 0
-5.23377e-05 2.76953e-05 0
-4.25282e-05 4.46352e-05 0
-4.09368e-05 4.35728e-05 0
-4.06302e-05 4.55143e-05 0
0.0002009 4.95e-05 0
0.0001998 5e-05 0
0.000199875 4.9375e-05 0
0.00019885 4.925e-05 0
0.0001972 5e-05 0
0.000197825 4.9125e-05 0
0.0001968 4.9e-05 0
0.000195775 4.8875e-05 0
0.0001946 5e-05 0
0.00019475 4.875e-05 0
0.000193725 4.8625e-05 0
0.000192 5e-05 0
0.0001927 4.85e-05 0
0.000191675 4.8375e-05 0
0.00019065 4.825e-05 0
0.0001894 5e-05 0
0.000189625 4.8125e-05 0
0.0001886 4.8e-05 0
0.0001868 5e-05 0
0.000187575 4.7875e-05 0
0.00018655 4.775e-05 0
0.000185515 4.8575e-05 0
0.0001842 5e-05 0
0.0001845 4.75e-05 0
0.000185525 4.7625e-05 0
0.000182564 4.829e-05 0
0.0001816 5e-05 0
0.00018245 4.725e-05 0
0.000183475 4.7375e-05 0
0.000181425 4.7125e-05 0
0.000180295 4.82657e-05 0
0.000179 5e-05 0
0.000179375 4.6875e-05 0
0.0001804 4.7e-05 0
0.000178168 4.80619e-05 0
0.0001764 5e-05 0
0.000177325 4.6625e-05 0
0.00017835 4.675e-05 0
0.000176428 4.76631e-05 0
0.0001763 4.65e-05 0
0.0001738 5e-05 0
0.0001751 4.84164e-05 0
0.000175275 4.6375e-05 0
0.000174025 4.75632e-05 0
0.0001712 5e-05 0
0.000172615 4.78449e-05 0
0.0001722 4.6e-05 0
0.000173225 4.6125e-05 0
0.00017015 4.575e-05 0
0.000171243 4.7381e-05 0
0.000169554 4.79999e-05 0
0.0001686 5e-05 0
0.000167507 4.79751e-05 0
0.000168498 4.64861e-05 0
0.000166 5e-05 0
0.00016558 4.71459e-05 0
0.000167135 4.62887e-05 0
0.0001681 4.55e-05 0
0.00016605 4.525e-05 0
0.000167075 4.5375e-05 0
0.000164059 4.61599e-05 0
0.00016394 4.79552e-05 0
0.000162881 4.6615e-05 0
0.000162975 4.4875e-05 0
0.000165025 4.5125e-05 0
0.000164 4.5e-05 0
0.000161754 4.58641e-05 0
0.000161722 4.78101e-05 0
0.000159956 4.58294e-05 0
0.000160925 4.4625e-05 0
0.00016195 4.475e-05 0
0.000157667 4.60322e-05 0
0.000158875 4.4375e-05 0
0.000159194 4.80155e-05 0
0.0001599 4.45e-05 0
0.00015785 4.425e-05 0
0.000155808 4.56757e-05 0
0.000155647 4.76701e-05 0
0.000154059 4.66642e-05 0
0.000153756 4.50083e-05 0
0.000154839 4.50446e-05 0
0.000156825 4.4125e-05 0
0.000151954 4.80508e-05 0
0.000154052 4.8477e-05 0
0.000153 5e-05 0
0.000154775 4.3875e-05 0
0.000152142 4.56625e-05 0
0.000152821 4.45753e-05 0
0.00015375 4.375e-05 0
0.0001504 5e-05 0
0.000149644 4.85168e-05 0
0.000151787 4.43178e-05 0
0.000152725 4.3625e-05 0
0.000150675 4.3375e-05 0
0.0001517 4.35e-05 0
0.000148119 4.50887e-05 0
0.000148072 4.75757e-05 0
0.000146584 4.63516e-05 0
0.000150008 4.6396e-05 0
0.000149351 4.4543e-05 0
0.00015061 4.46252e-05 0
0.0001476 4.3e-05 0
0.000148625 4.3125e-05 0
0.000146492 4.82975e-05 0
0.000144888 4.73562e-05 0
0.000146676 4.44259e-05 0
0.000145255 4.53656e-05 0
0.000145652 4.38669e-05 0
0.000141401 4.79821e-05 0
0.0001426 5e-05 0
0.00014 5e-05 0
0.000144374 4.38862e-05 0
0.00014555 4.275e-05 0
0.0001435 4.25e-05 0
0.000144525 4.2625e-05 0
0.000142746 4.38121e-05 0
0.000141288 4.43191e-05 0
0.000141707 4.32778e-05 0
0.00013921 4.38992e-05 0
0.000140355 4.5932e-05 0
0.000138302 4.5922e-05 0
0.000142912 4.58869e-05 0
0.000140592 4.30037e-05 0
0.00014145 4.225e-05 0
0.000136458 4.5869e-05 0
0.000137106 4.4063e-05 0
0.0001394 4.2e-05 0
0.000138259 4.28915e-05 0
0.000137484 4.77094e-05 0
0.000139166 4.78902e-05 0
0.00013586 4.78984e-05 0
0.000133449 4.78649e-05 0
0.000134717 4.61848e-05 0
0.000137256 4.25134e-05 0
0.000135323 4.24541e-05 0
0.000136325 4.1625e-05 0
0.000136122 4.2876e-05 0
0.000131206 4.47284e-05 0
0.000133168 4.56738e-05 0
0.000131773 4.65243e-05 0
0.000134756 4.40343e-05 0
0.000132747 4.36463e-05 0
0.000133483 4.26786e-05 0
0.000131081 4.1867e-05 0
0.000132382 4.22815e-05 0
0.000131507 4.3122e-05 0
0.000131059 4.80123e-05 0
0.00013325 4.125e-05 0
0.00012915 4.075e-05 0
0.00012982 4.18199e-05 0
0.000128915 4.26216e-05 0
0.000126366 4.47574e-05 0
0.000127331 4.30908e-05 0
0.000128781 4.44872e-05 0
0.000125336 4.28376e-05 0
0.000130218 4.31077e-05 0
0.000127894 4.16344e-05 0
0.000124774 4.69608e-05 0
0.000127668 4.64148e-05 0
0.000126591 4.8331e-05 0
0.000126722 4.18415e-05 0
0.000125768 4.11931e-05 0
0.000124326 4.13546e-05 0
0.00012505 4.025e-05 0
0.000122408 4.50118e-05 0
0.000120276 4.47432e-05 0
0.00012139 4.32235e-05 0
0.000124336 4.44132e-05 0
0.000123056 4.27595e-05 0
0.000122977 4.09049e-05 0
0.00012185 4.69217e-05 0
0.000122676 4.85947e-05 0
0.000120525 4.86094e-05 0
0.000121479 4.13153e-05 0
0.000119547 4.24221e-05 0
0.000120249 4.07448e-05 0
0.000119925 3.9625e-05 0
0.000119346 4.06114e-05 0
0.000117479 4.47279e-05 0
0.000114726 4.45259e-05 0
0.00011571 4.27814e-05 0
0.000119443 4.66611e-05 0
0.000117447 4.21596e-05 0
0.000118421 4.0752e-05 0
0.000117409 4.04437e-05 0
0.000116775 4.70073e-05 0
0.0001179 4.855e-05 0
0.000115473 4.84802e-05 0
0.00011685 3.925e-05 0
0.000117875 3.9375e-05 0
0.000115454 4.00551e-05 0
0.0001148 3.9e-05 0
0.000115825 3.9125e-05 0
0.000111704 4.23398e-05 0
0.000113786 4.26731e-05 0
0.000112589 4.43871e-05 0
0.000113234 4.06671e-05 0
0.000114754 4.13371e-05 0
0.0001106 4.42326e-05 0
0.000109703 4.24261e-05 0
0.00011275 3.875e-05 0
0.000113775 3.8875e-05 0
0.000110211 4.80875e-05 0
0.000108244 4.71951e-05 0
0.000109312 4.58413e-05 0
0.000111755 3.99116e-05 0
0.00010944 3.92972e-05 0
0.000110415 4.05876e-05 0
0.000108839 4.07536e-05 0
0.000106472 4.76905e-05 0
0.000107274 4.57868e-05 0
0.000108011 3.92415e-05 0
0.000106885 4.04365e-05 0
0.000106625 3.88708e-05 0
0.000105286 4.19254e-05 0
0.000105055 3.95469e-05 0
0.000104215 4.39764e-05 0
0.000106346 4.40629e-05 0
0.000100945 4.51249e-05 0
0.000102825 4.5614e-05 0
0.000101189 4.68452e-05 0
0.000107625 3.8125e-05 0
0.000105575 3.7875e-05 0
0.0001066 3.8e-05 0
0.000103352 4.76905e-05 0
0.000101803 4.8465e-05 0
0.000103685 3.89398e-05 0
0.00010245 3.8825e-05 0
0.000103525 3.7625e-05 0
0.000101092 3.99779e-05 0
0.000101267 3.82619e-05 0
0.000101382 4.2025e-05 0
0.000103187 4.05286e-05 0
0.000103359 4.24605e-05 0
9.87383e-05 4.5447e-05 0
9.99411e-05 4.35161e-05 0
9.744e-05 4.33145e-05 0
0.00010045 3.725e-05 0
0.000101475 3.7375e-05 0
9.70845e-05 4.65215e-05 0
9.52614e-05 4.67664e-05 0
9.61768e-05 4.49944e-05 0
9.9729e-05 3.87704e-05 0
9.78901e-05 3.9598e-05 0
9.85823e-05 3.81492e-05 0
9.62289e-05 3.93709e-05 0
9.74259e-05 3.81279e-05 0
9.7375e-05 3.6875e-05 0
9.63045e-05 3.76631e-05 0
9.58e-05 5e-05 0
9.32e-05 5e-05 0
9.47542e-05 4.8457e-05 0
9.49675e-05 3.85246e-05 0
9.36214e-05 3.89472e-05 0
9.40006e-05 3.74906e-05 0
9.66411e-05 4.12573e-05 0
9.44241e-05 4.07079e-05 0
9.03569e-05 4.24993e-05 0
9.21701e-05 4.02409e-05 0
9.27439e-05 4.27744e-05 0
8.89795e-05 4.09067e-05 0
9.03071e-05 4.0248e-05 0
9.25447e-05 3.77721e-05 0
9.3275e-05 3.6375e-05 0
9.07708e-05 3.87127e-05 0
9.11303e-05 3.70839e-05 0
9.11933e-05 4.55145e-05 0
9.30678e-05 4.73279e-05 0
9.11886e-05 4.82603e-05 0
8.87724e-05 3.88076e-05 0
8.99595e-05 3.75116e-05 0
9.02e-05 3.6e-05 0
8.89241e-05 3.6954e-05 0
8.36977e-05 4.59472e-05 0
8.36223e-05 4.83578e-05 0
8.20467e-05 4.74142e-05 0
8.71227e-05 4.03557e-05 0
8.61e-05 3.55e-05 0
8.68368e-05 3.65714e-05 0
8.5484e-05 3.6588e-05 0
8.47735e-05 4.02845e-05 0
8.23121e-05 4.21599e-05 0
8.26582e-05 3.98147e-05 0
8.46943e-05 4.2454e-05 0
8.38832e-05 3.78613e-05 0
8.35569e-05 3.63808e-05 0
8.44098e-05 3.6291e-05 0
8.5075e-05 3.5375e-05 0
8.51465e-05 4.77163e-05 0
8.3025e-05 3.5125e-05 0
8.22824e-05 3.68659e-05 0
8.1446e-05 3.57362e-05 0
8.05884e-05 3.71794e-05 0
7.53471e-05 4.77524e-05 0
7.38313e-05 4.73927e-05 0
7.39102e-05 4.61526e-05 0
7.9826e-05 3.58588e-05 0
7.88607e-05 3.76287e-05 0
7.81733e-05 3.57987e-05 0
8.16783e-05 3.84471e-05 0
8.07975e-05 4.04095e-05 0
7.52138e-05 4.04775e-05 0
7.67682e-05 4.17043e-05 0
7.49617e-05 4.21803e-05 0
7.52903e-05 3.84008e-05 0
7.38293e-05 3.93136e-05 0
[...]
CELL_DATA 58684
VECTORS velocity DOUBLE
74.3079 0.337228 0
87.6517 0.000193488 0
87.6248 -8.66302e-05 0
87.6573 -0.00132549 0
87.6295 0.00114842 0
87.6622 -0.00293572 0
87.6354 0.00346639 0
77.8844 -0.00121719 0
77.9016 -0.0246872 0
78.0196 -0.00233689 0
78.1404 -0.00467884 0
78.2079 -0.40971 0
77.9406 -0.109652 0
78.2912 -0.135141 0
77.9179 -0.184809 0
78.4979 -0.169903 0
77.8853 -0.112844 0
78.8715 -0.157545 0
77.9735 -0.317799 0
79.394 -0.110846 0
77.8974 -0.116089 0
78.8388 -0.370035 0
85.5464 -2.1695 0
77.8639 0.0124625 0
77.8693 0.0513989 0
77.8631 0.0249786 0
77.9124 0.142511 0
77.9013 0.0235613 0
77.9055 0.188701 0
78.0162 0.049105 0
77.8947 0.145535 0
77.9682 0.0334699 0
77.8581 0.143929 0
78.3654 0.162524 0
78.073 1.13394 0
78.2124 0.0688579 0
77.9061 0.179752 0
78.4472 0.354431 0
87.6679 0.000230892 0
87.6734 0.000194802 0
87.6816 -0.00578017 0
87.6819 -0.00271454 0
87.6923 0.000548316 0
87.7008 -0.00465894 0
87.7022 -0.00748408 0
87.7044 -0.00349149 0
87.7129 0.000117359 0
87.7189 -0.00731459 0
87.7186 -0.00530135 0
87.7278 -0.000104203 0
87.7361 -0.00798435 0
87.7366 -0.00926433 0
87.7382 -0.0048926 0
87.7459 -0.000479078 0
87.7513 -0.00933231 0
87.7507 -0.00735374 0
87.7592 -0.00111969 0
87.7674 -0.011709 0
87.7676 -0.0118497 0
87.7696 -0.0059919 0
87.7792 -0.000299895 0
87.781 -0.0151938 0
87.7873 -0.00963228 0
87.7977 -0.00126221 0
87.7986 -0.0176728 0
87.7996 -0.0148734 0
87.8073 -0.0119501 0
87.8134 -0.00128224 0
87.8136 -0.0176924 0
87.8213 -0.0128915 0
87.8285 -0.00173738 0
87.8291 -0.0200038 0
87.835 -0.0150022 0
87.8415 -0.0239839 0
87.848 -0.0010018 0
87.8508 -0.018071 0
87.855 -0.0114119 0
87.8651 -0.00216536 0
87.8672 -0.0253217 0
87.8849 -0.0205783 0
87.8708 -0.0205377 0
87.8857 -0.00199611 0
87.8921 -0.0130689 0
87.8877 -0.0255488 0
87.9117 -0.0162407 0
87.9078 -0.0217697 0
87.907 -0.0296497 0
87.9167 -0.0358659 0
87.9326 -0.0228766 0
87.9461 -0.0326168 0
87.9262 -0.0280065 0
87.9405 -0.0400296 0
87.9537 -0.0305009 0
87.9511 -0.0303858 0
87.9594 -0.0421589 0
87.9856 -0.039288 0
87.9687 -0.0331711 0
87.9778 -0.0446776 0
87.9931 -0.0511602 0
87.9951 -0.0379585 0
88.0161 -0.0465004 0
87.9993 -0.0416466 0
88.0164 -0.0138117 0
88.0221 -0.0520077 0
88.0377 -0.0491329 0
88.0312 -0.0534835 0
88.0347 -0.0142271 0
88.044 -0.057081 0
88.0581 -0.0631206 0
88.0669 -0.0360738 0
88.0652 -0.0384169 0
88.0541 -0.0518836 0
88.0839 -0.0675877 0
88.0777 -0.0278537 0
88.1069 -0.0617973 0
88.093 -0.0400214 0
88.1166 -0.00382491 0
88.1167 -0.0703989 0
88.129 -0.0799329 0
88.1536 -0.0711301 0
88.165 -0.0542397 0
88.1261 -0.0420773 0
88.1615 -0.0811634 0
88.1844 -0.0551532 0
88.1854 -0.085139 0
88.1575 -0.0310261 0
88.1953 -0.0774095 0
88.1973 -0.0300772 0
88.2065 -0.0888256 0
88.229 -0.101723 0
88.2475 -0.0606851 0
88.2473 -0.0855393 0
88.2173 -0.0403062 0
88.2806 -0.109648 0
88.2265 -0.0323032 0
88.2648 -0.109351 0
88.3172 -0.1229 0
88.3215 -0.086966 0
88.3343 -0.105064 0
88.3039 -0.102508 0
88.3279 -0.112952 0
88.2877 -0.0477072 0
88.3633 -0.129363 0
88.3855 -0.142676 0
88.4005 -0.0933117 0
88.3348 -0.0695183 0
88.3776 -0.122222 0
88.3952 -0.143118 0
88.3492 -0.0291937 0
88.4501 -0.154078 0
88.4622 -0.170054 0
88.4827 -0.105186 0
88.4108 -0.0900458 0
88.4691 -0.1435 0
88.4875 -0.169766 0
88.4222 -0.0312553 0
88.5046 -0.195735 0
88.5444 -0.209343 0
88.5437 -0.146996 0
88.5474 -0.17075 0
88.5807 -0.155446 0
88.576 -0.216687 0
88.5532 -0.0574593 0
88.5825 -0.204363 0
88.6399 -0.208517 0
88.5985 -0.0677505 0
88.6932 -0.245693 0
88.7111 -0.226899 0
88.6875 -0.145301 0
88.728 -0.110582 0
88.6987 -0.252306 0
88.7303 -0.276897 0
88.7023 -0.0565714 0
88.7845 -0.280858 0
88.8225 -0.287311 0
88.7512 -0.206448 0
88.7936 -0.131344 0
88.8235 -0.17005 0
88.8519 -0.327832 0
88.8556 -0.111849 0
88.8998 -0.306656 0
88.9232 -0.300745 0
88.9464 -0.350589 0
88.8771 -0.00609614 0
89.0258 -0.349268 0
88.9252 -0.270639 0
89.0168 -0.245085 0
89.0735 -0.285644 0
89.069 -0.387487 0
89.1114 -0.390868 0
88.9748 -0.0886753 0
89.1392 -0.379996 0
89.1653 -0.436903 0
89.1744 -0.420361 0
89.2187 -0.0977824 0
89.1522 -0.334055 0
89.3041 -0.484323 0
89.3286 -0.366737 0
89.2598 -0.309478 0
89.3487 -0.510584 0
89.3395 -0.505162 0
89.2129 -0.0881619 0
89.4215 -0.560556 0
89.4514 -0.527821 0
89.5704 -0.104942 0
89.5312 -0.578689 0
89.398 -0.406537 0
89.6004 -0.37186 0
89.6577 -0.47881 0
89.5729 -0.525493 0
89.5992 -0.62892 0
89.6187 -0.227541 0
89.7404 -0.609666 0
89.7074 -0.698978 0
89.8655 -0.713033 0
89.7957 -0.0127313 0
89.8177 -0.586595 0
89.8747 -0.737739 0
89.7106 -0.182007 0
89.9292 -0.776029 0
89.9961 -0.450707 0
89.9709 -0.811099 0
90.1248 -0.25427 0
90.1092 -0.704692 0
90.0832 -0.827263 0
90.0019 -0.127163 0
90.2084 -0.855397 0
90.3622 -0.837421 0
90.2216 -0.710191 0
90.253 -0.431485 0
90.3941 -0.961132 0
90.3791 -0.379665 0
90.5092 -0.0651673 0
90.3373 -0.758804 0
90.4942 -0.954789 0
90.5762 -1.02432 0
90.5737 -0.324333 0
90.6997 -0.888697 0
90.8414 -0.975986 0
90.6305 -0.108448 0
90.9731 -0.952753 0
90.899 -1.06088 0
90.7638 -0.784496 0
90.8001 -0.379666 0
90.9063 -0.445346 0
91.0369 -1.07048 0
90.9287 -0.00799337 0
91.1366 -1.14229 0
91.2602 -1.08735 0
91.2202 -1.14312 0
91.1535 -0.250348 0
91.3135 -0.933961 0
91.5461 -0.952109 0
91.1028 -0.00611662 0
91.6363 -1.12935 0
91.7979 -0.963074 0
91.4611 -0.695334 0
91.2733 -0.287811 0
91.7975 -1.08779 0
91.4319 -0.358231 0
91.199 -0.0174979 0
91.7173 -0.733792 0
92.0442 -0.993914 0
92.2021 -0.929806 0
91.3742 -0.0795094 0
92.1397 -0.636547 0
92.2834 -0.835009 0
91.2111 0.028883 0
92.4161 -0.825048 0
92.5949 -0.694993 0
92.2111 -0.249655 0
90.9326 0.00865611 0
92.7419 -0.470232 0
91.8596 0.188226 0
92.0857 0.29316 0
92.6105 -0.314552 0
92.3843 -0.047328 0
93.0552 -0.078505 0
91.0423 0.368375 0
93.0427 -0.183039 0
92.5769 0.399544 0
93.225 0.464445 0
90.9659 0.106251 0
93.1641 1.17422 0
92.928 1.40807 0
89.5231 0.197858 0
93.3939 0.860468 0
93.2803 1.34625 0
90.9013 1.47291 0
90.6696 0.701343 0
92.2191 1.10152 0
93.1675 1.88416 0
89.7793 0.330284 0
92.6553 2.78005 0
93.344 2.1208 0
93.3546 2.34963 0
88.9805 1.41447 0
91.6647 2.91477 0
92.7003 3.16913 0
88.9693 0.231338 0
92.5106 3.67321 0
92.1561 3.55728 0
91.1604 5.18981 0
86.62 0.396952 0
92.3114 4.88385 0
90.3084 3.52381 0
88.4207 1.56613 0
88.0126 2.98877 0
92.0702 5.39217 0
90.9161 5.84645 0
87.0652 0.608689 0
90.9874 6.67378 0
87.6408 9.93644e-05 0
87.6464 -0.000250975 0
87.6538 0.00503464 0
87.654 0.00249269 0
87.6638 -0.00054123 0
87.672 0.00448321 0
87.6732 0.00662158 0
87.6759 0.00249728 0
87.6835 -6.02436e-05 0
87.6893 0.0072265 0
87.689 0.00465929 0
87.6978 7.20172e-05 0
87.7055 0.00771262 0
87.7059 0.00898362 0
87.7075 0.00477977 0
87.7151 0.000453813 0
87.7203 0.00930415 0
87.7199 0.00724856 0
87.7283 0.00111901 0
87.7364 0.0114474 0
87.7367 0.0116908 0
87.7473 0.0158159 0
87.7387 0.00585104 0
87.7536 0.00946342 0
87.7655 0.0151789 0
87.7564 0.00975626 0
87.769 0.0149502 0
87.7767 0.0120191 0
87.7828 0.0190813 0
87.7734 0.00981755 0
87.7908 0.0131438 0
87.7981 0.0213171 0
87.7898 0.0103121 0
87.8117 0.0245689 0
87.8139 0.0232965 0
87.8184 0.0174808 0
87.8073 0.0123458 0
87.8209 0.0184576 0
87.8349 0.01815 0
87.8252 0.0116754 0
87.848 0.0307365 0
87.8459 0.011838 0
87.856 0.0208621 0
87.8436 0.0156495 0
87.859 0.025837 0
87.8787 0.0298611 0
87.883 0.016502 0
87.8738 0.0270597 0
87.8931 0.0318858 0
87.8945 0.0354639 0
87.9127 0.0185053 0
87.9046 0.0229138 0
87.9179 0.0326251 0
87.9307 0.0451421 0
87.9332 0.0221651 0
87.9406 0.0361777 0
87.9483 0.0472159 0
87.9547 0.0270505 0
87.9403 0.0330974 0
87.9658 0.0518068 0
87.9667 0.0498491 0
87.9708 0.0318129 0
87.9795 0.0229078 0
87.9886 0.0460638 0
87.9417 0.014122 0
88.0037 0.0536367 0
88.0308 0.0639629 0
88.0149 0.0537844 0
88.0011 0.032211 0
88.0397 0.06431 0
88.0451 0.057365 0
88.0523 0.0280477 0
88.0281 0.0525324 0
88.0617 0.0601382 0
88.0752 0.0689546 0
88.0308 0.0164552 0
88.0629 0.0494805 0
88.1039 0.0800021 0
88.0693 0.0406701 0
88.1123 0.0713843 0
88.135 0.084301 0
88.1113 0.0616781 0
88.1211 0.025746 0
88.1411 0.0739805 0
88.1572 0.0864089 0
88.1306 0.0213996 0
88.1758 0.0946747 0
88.1435 0.0685562 0
88.1909 0.0794292 0
88.1557 0.0546553 0
88.2017 0.101744 0
88.2485 0.122605 0
88.2018 0.0318082 0
88.208 0.0834296 0
88.2694 0.12979 0
88.2441 0.0930571 0
88.1936 0.0392307 0
88.2807 0.12192 0
88.2964 0.127717 0
88.2491 0.0316477 0
88.2879 0.0576101 0
88.3187 0.112455 0
88.3375 0.147809 0
88.2702 0.0780554 0
88.3605 0.144054 0
88.3763 0.153477 0
88.3609 0.0534194 0
88.3514 0.0953959 0
88.414 0.170791 0
88.4041 0.144961 0
88.3133 0.0470053 0
88.4257 0.163173 0
88.4648 0.175601 0
88.428 0.0698902 0
88.4353 0.149094 0
88.5131 0.207833 0
88.4952 0.158932 0
88.3833 0.0505605 0
88.5311 0.195346 0
88.5842 0.235114 0
88.4708 0.0678288 0
88.5663 0.187314 0
88.5353 0.088038 0
88.5983 0.194998 0
88.5197 0.110197 0
88.6318 0.248893 0
88.6746 0.248818 0
88.5753 0.0680096 0
88.6642 0.24193 0
88.7275 0.278899 0
88.6637 0.0723123 0
88.6359 0.203359 0
88.7107 0.237171 0
88.7641 0.282248 0
88.6442 0.0423086 0
88.7684 0.257039 0
88.8544 0.331905 0
88.8286 0.277831 0
88.7568 0.0848994 0
88.887 0.288736 0
88.7223 0.1082 0
88.7675 0.245492 0
88.8848 0.32079 0
88.9747 0.363487 0
88.9799 0.371276 0
88.7327 0.00795792 0
89.0624 0.421695 0
89.0696 0.411254 0
89.0792 0.361917 0
89.0117 0.179493 0
89.0986 0.196092 0
89.0987 0.405659 0
88.8907 0.111018 0
89.2007 0.45864 0
89.1887 0.448314 0
89.1887 0.402974 0
89.0797 0.116704 0
89.2576 0.449954 0
89.3674 0.558665 0
89.2217 0.209962 0
89.182 0.224272 0
89.3208 0.45159 0
89.4691 0.583199 0
89.1131 0.139439 0
89.5029 0.615172 0
89.5326 0.600826 0
89.3468 0.118834 0
89.6521 0.686418 0
89.6796 0.660543 0
89.7293 0.5706 0
89.5261 0.252761 0
89.5042 0.286098 0
89.6599 0.638275 0
89.4199 0.185392 0
89.8067 0.760405 0
89.8507 0.720739 0
89.8431 0.665003 0
89.5972 0.101873 0
89.9992 0.785559 0
90.012 0.803037 0
89.8639 0.453176 0
90.0915 0.634041 0
89.8747 0.368242 0
90.0585 0.771793 0
89.775 0.234239 0
90.2002 0.900873 0
90.2196 0.873419 0
89.8022 0.184457 0
90.2798 0.804856 0
90.4447 0.931197 0
90.3659 0.906938 0
90.2468 0.212479 0
90.6355 0.977688 0
90.6761 1.04191 0
90.216 0.629802 0
90.5703 0.774109 0
90.2647 0.384744 0
90.8546 1.09985 0
90.4109 0.119312 0
90.912 1.0716 0
90.9039 1.0177 0
90.2472 0.0948004 0
90.836 0.92026 0
91.2048 1.09295 0
91.2916 1.10355 0
90.772 0.276202 0
91.3587 1.07921 0
91.4058 1.15014 0
90.7658 0.697398 0
91.4065 0.762429 0
90.9133 0.269809 0
91.5639 1.15095 0
90.9303 0.100935 0
91.7022 1.07731 0
91.7869 1.06276 0
90.776 0.0698388 0
91.6081 0.878936 0
92.0629 0.99595 0
92.2199 0.93315 0
91.168 0.178874 0
92.0586 0.874045 0
92.3512 0.885638 0
91.6967 0.750774 0
92.1331 0.443469 0
91.2343 0.113731 0
92.1243 0.792262 0
91.232 0.0419888 0
92.5898 0.780705 0
92.6724 0.633176 0
91.1445 0.0391241 0
92.3712 0.316703 0
92.8141 0.349663 0
92.9974 0.214568 0
91.184 -0.0962068 0
93.0822 0.0112472 0
93.1246 -0.126634 0
91.3193 -0.262946 0
93.1377 -0.156691 0
92.3246 -0.620511 0
91.6224 -0.0831312 0
91.4373 0.00709891 0
93.2664 -0.44949 0
93.0183 -0.851787 0
93.4468 -1.02615 0
91.0727 -0.00477748 0
92.7142 -1.30741 0
93.4351 -1.76647 0
91.0114 -0.121766 0
92.5495 -1.27645 0
93.4022 -2.30977 0
91.972 -1.74938 0
90.9682 -0.654105 0
93.2036 -2.66247 0
93.0592 -2.95809 0
91.9501 -1.10007 0
91.3481 -3.13397 0
89.2871 -2.59427 0
92.6939 -2.99909 0
89.7361 -0.404469 0
92.6686 -3.95373 0
90.0463 7.2788 0
90.7899 6.50176 0
85.3184 1.9252 0
89.938 7.23679 0
87.6749 6.62731 0
89.2715 7.87216 0
85.9246 0.755034 0
88.2791 8.07829 0
87.0918 7.95358 0
84.6429 0.962189 0
87.1683 8.48021 0
92.573 -4.37534 0
89.9882 -0.251283 0
92.3001 -4.72341 0
91.0441 -5.129 0
90.4904 -4.4145 0
89.0643 -0.267154 0
91.2849 -5.71891 0
85.8448 7.75048 0
90.6197 -7.00182 0
88.7988 -1.39733 0
90.2919 -6.76854 0
89.4161 -7.73722 0
83.4632 2.36762 0
88.9735 -7.59423 0
90.2184 -4.22834 0
89.4701 -6.8781 0
87.5881 -5.09315 0
86.6469 -0.837344 0
88.5206 -6.9889 0
87.7153 -7.40179 0
85.2153 8.17865 0
87.7897 -7.41285 0
87.4989 -0.45345 0
86.7444 -7.7689 0
86.2276 -8.47609 0
85.9489 -0.562973 0
85.1243 -8.62283 0
85.6332 -6.32628 0
83.7271 -0.65219 0
84.1007 -8.77588 0
84.1555 -4.86751 0
85.9049 -3.82955 0
84.6442 -7.5123 0
83.5209 -7.86578 0
86.2231 4.39109 0
82.5302 0.528516 0
85.6222 2.93683 0
84.2473 -0.0727165 0
82.9746 -8.53309 0
84.8326 7.74601 0
82.2509 0.384748 0
84.2471 6.59185 0
82.0994 -8.39755 0
83.8081 -1.71692 0
81.3646 -6.13073 0
84.2541 8.83079 0
81.1093 2.0266 0
84.1505 8.756 0
81.8893 7.30414 0
81.4006 0.41372 0
82.5389 7.67853 0
81.9832 -6.37715 0
83.3055 -0.47491 0
81.2368 -8.5263 0
81.2521 -8.29366 0
82.9185 8.24734 0
80.9691 7.86379 0
80.6889 0.0406514 0
82.0452 8.11772 0
80.1334 5.08704 0
80.6964 2.28992 0
80.3052 -8.47472 0
81.1769 -1.10041 0
80.641 -8.35003 0
79.841 8.31725 0
79.669 -7.74311 0
80.2815 -1.07834 0
79.9173 -3.40116 0
78.397 -7.43879 0
81.4234 -4.11155 0
78.2528 -7.19331 0
79.7583 -0.289472 0
77.3323 -6.87337 0
79.4395 2.86635 0
80.042 0.461217 0
79.3981 6.98254 0
79.4019 0.115568 0
79.2041 8.19413 0
78.9083 7.691 0
79.0709 0.184668 0
78.1317 6.73067 0
78.8348 0.133257 0
78.7143 -6.43004 0
79.7572 -0.57522 0
79.9448 6.05182 0
77.9484 0.738842 0
77.6814 6.32046 0
77.2135 -6.83449 0
79.8713 -0.231205 0
75.5743 -5.8429 0
77.9127 -0.44149 0
76.3905 -5.75056 0
78.6875 2.55091 0
77.8599 0.12029 0
79.427 -5.23381 0
77.8626 -0.113163 0
75.6894 -5.41406 0
77.0789 5.7027 0
77.0758 -4.2734 0
77.8897 -0.24479 0
75.9814 -4.636 0
78.0576 3.14477 0
75.9014 1.99741 0
76.5677 4.92933 0
77.7023 -0.986304 0
75.8344 -5.13941 0
77.8413 0.402693 0
76.5101 6.65311 0
77.804 -2.38002 0
77.8612 -0.0846382 0
75.4957 -4.63477 0
76.2315 5.94486 0
77.8773 0.717814 0
76.1617 4.64529 0
75.8901 4.58566 0
77.8362 0.380619 0
75.0869 4.08242 0
74.6443 -4.16486 0
77.8611 -0.296076 0
74.342 -4.15687 0
76.6698 -1.98168 0
77.8675 -0.202104 0
73.7116 -2.83267 0
75.1569 5.08022 0
77.8071 0.62254 0
76.3658 3.25341 0
74.3143 -2.57346 0
77.7856 -0.311441 0
73.672 -2.3441 0
74.0365 3.73807 0
77.7968 0.266657 0
74.4317 3.52117 0
74.7246 2.87286 0
77.8607 0.0356044 0
73.8979 3.06015 0
74.9932 -1.51418 0
77.7462 -0.542369 0
74.2926 -1.33401 0
73.129 -0.85009 0
77.128 -0.926154 0
73.1783 -0.720047 0
76.843 0.960201 0
77.8144 0.0768516 0
75.9786 2.4393 0
73.6762 2.46459 0
77.7019 0.0596253 0
73.2524 1.55647 0
77.4484 -0.236292 0
77.85 -0.111728 0
73.1763 -0.236848 0
73.6951 -0.0929151 0
77.8326 -0.0661172 0
75.8774 0.308401 0
73.8608 0.527775 0
77.8402 -0.0622832 0
77.2891 -5.66484 0
77.9487 -0.433203 0
77.853 0.132203 0
78.1504 6.89309 0
79.1073 -7.74878 0
82.1569 -0.946506 0
80.5193 0.997137 0
81.8116 8.62505 0
77.8166 0.279754 0
74.6056 4.86103 0
74.0695 -2.84143 0
77.8184 -0.200436 0
77.9035 -0.572602 0
77.645 -3.67455 0
77.9798 0.801872 0
77.9173 0.201192 0
77.8274 -0.000706302 0
73.7434 2.05574 0
79.3617 0.466586 0
78.4398 1.57737 0
78.7706 -1.37335 0
80.3276 -0.69166 0
86.0388 -1.26733 0
85.6066 -8.46699 0
87.5233 8.07624 0
85.5627 0.468209 0
77.799 1.66563 0
79.7551 8.01117 0
78.6613 -7.09283 0
79.3253 -2.31622 0
76.9509 -1.45984 0
74.6816 -0.223207 0
76.2649 5.83888 0
78.1227 1.89408 0
77.9586 -1.78998 0
74.8707 -4.64015 0
92.0411 -5.36528 0
88.7371 -0.659305 0
88.3 0.788762 0
92.4992 4.45745 0
77.9751 -0.815187 0
77.8898 -0.0453255 0
77.8824 0.14823 0
78.9975 0.758163 0
83.2477 0.734326 0
82.8769 4.10766 0
81.3011 -1.99044 0
84.47 -1.74592 0
81.78 4.90252 0
84.7703 8.31117 0
83.5867 -8.69329 0
82.6757 -1.92013 0
86.8264 1.60969 0
87.9195 5.02347 0
86.4615 -2.78919 0
87.6478 -0.0409212 0
90.9499 -0.246518 0
93.4031 -1.27696 0
93.2568 0.474841 0
90.1064 0.0268077 0
91.1949 0.00455886 0
92.7127 0.615536 0
92.493 -0.594903 0
91.3146 0.0300853 0
79.0706 -1.44862 0
78.4883 -0.574339 0
78.4099 1.2378 0
79.2406 0.952284 0
78.2426 1.22758 0
77.8888 0.242003 0
77.8595 -0.106342 0
78.1616 -1.12862 0
89.7721 0.948827 0
91.0218 1.86923 0
90.1039 -1.13851 0
90.3344 -0.168578 0
76.0075 -0.959572 0
77.8519 -0.155867 0
77.4871 -0.439379 0
77.8713 -0.376225 0
77.8562 0.204575 0
77.8971 0.967351 0
91.8543 1.01025 0
91.0544 0.158675 0
91.1605 -0.00615068 0
91.6023 -1.08277 0
81.7732 -0.0396822 0
80.9993 -2.82888 0
82.0859 1.80655 0
80.751 0.448102 0
77.8979 4.05195 0
77.4361 7.32887 0
77.1692 -6.27152 0
78.3526 -3.23271 0
78.8374 -2.11389 0
77.5752 -2.23141 0
77.9987 4.64448 0
78.2641 2.22669 0
91.3159 0.041749 0
91.0233 0.139851 0
91.227 -0.0460246 0
92.2123 0.123278 0
79.8573 -5.43089 0
80.9518 -5.26658 0
80.5246 4.64613 0
81.1017 8.5455 0
79.1685 -3.98535 0
80.3408 -2.31567 0
80.1779 3.1206 0
79.3087 1.53868 0
91.145 1.15619 0
90.6137 0.144521 0
90.8191 -0.012673 0
90.7595 -1.03311 0
77.334 1.01633 0
77.8468 0.0289413 0
91.2237 -0.0611307 0
91.8636 -0.373087 0
91.5812 0.260256 0
91.0808 0.0398886 0
78.8646 -0.957462 0
78.3814 -1.33379 0
79.1871 1.745 0
78.2499 0.73539 0
77.8955 -0.147194 0
78.1634 -0.699969 0
77.9738 0.315433 0
77.8698 0.136314 0
74.1723 1.71486 0
76.9894 1.52543 0
87.2305 -3.15153 0
90.6124 -6.3468 0
91.5887 5.79118 0
86.9397 2.27332 0
76.8505 -2.31664 0
74.8058 -2.90319 0
90.0235 0.154695 0
90.275 0.871863 0
89.4157 0.0734521 0
89.9701 0.820701 0
90.2945 -0.848149 0
90.1355 -0.141084 0
89.7663 -0.685034 0
89.6738 -0.0147752 0
90.9714 -0.218899 0
91.097 -0.628297 0
90.9467 0.395514 0
90.7199 0.00877196 0
77.8591 0.178937 0
77.6938 0.540296 0
76.4864 0.451982 0
74.2635 0.846556 0
77.7991 -0.25085 0
77.8424 -0.169391 0
77.3965 0.274459 0
77.3316 -0.752035 0
93.2024 -2.71424 0
90.0179 -1.74285 0
91.0086 2.20982 0
93.381 1.57525 0
78.036 -0.0631117 0
78.1425 -0.364806 0
77.8963 0.053545 0
78.3266 0.261357 0
90.4478 -0.206295 0
90.4753 -0.53133 0
90.4889 0.356362 0
90.1401 0.114901 0
89.2682 0.163186 0
89.4359 0.50944 0
89.4669 -0.594527 0
89.3469 -0.144464 0
78.5026 -0.899157 0
79.4473 -2.13741 0
78.8762 1.6136 0
78.4869 1.27292 0
79.2211 2.88318 0
77.6171 1.85259 0
78.158 -1.92392 0
78.8404 -2.79595 0
91.6439 -0.52253 0
92.6277 0.333218 0
92.798 -0.328958 0
92.0666 0.55566 0
77.7124 -1.15039 0
77.8332 -1.36664 0
77.8523 1.08436 0
77.3669 1.30862 0
89.3023 0.526654 0
89.0368 0.157804 0
89.0881 -0.099376 0
89.2534 -0.450493 0
85.3019 4.2694 0
87.3326 7.13034 0
86.8221 -8.4009 0
86.3658 -3.34462 0
75.2855 -3.42741 0
77.6049 -3.51617 0
84.9196 -3.06381 0
85.5769 -1.09842 0
83.9012 0.454322 0
87.2807 3.10597 0
74.8877 4.62926 0
76.7662 2.7345 0
89.8786 -0.0518876 0
90.0486 -0.53696 0
89.9338 0.353119 0
89.8503 0.0946367 0
89.1916 -0.369209 0
88.9545 -1.51157 0
89.5143 2.08319 0
88.5249 0.271524 0
83.2578 1.39769 0
81.4834 0.350852 0
82.6254 -0.337754 0
83.3019 -3.11218 0
91.5466 0.33376 0
91.8358 0.87916 0
91.9907 -0.955629 0
91.8473 -0.0718519 0
82.2794 -3.83267 0
83.3879 -1.8374 0
82.5937 2.71276 0
85.1863 5.98925 0
88.9559 0.322296 0
88.834 0.0612866 0
88.9822 -0.0968259 0
88.9552 -0.33551 0
89.4389 -0.17975 0
89.5735 -0.00982087 0
89.5511 0.100502 0
89.4195 0.421371 0
79.987 0.498272 0
79.7407 1.30492 0
80.0058 -1.14696 0
80.8654 -0.319979 0
81.5532 2.82872 0
79.9079 1.94979 0
79.29 -2.83606 0
78.4463 -2.8642 0
90.9825 -0.47572 0
90.7255 -0.27574 0
90.5352 0.372212 0
91.4972 0.61399 0
79.9139 3.84828 0
80.4182 2.57287 0
79.3489 -0.824968 0
79.173 -0.293993 0
79.0074 0.266054 0
79.7469 0.88863 0
76.6088 -0.875029 0
77.5657 -1.34878 0
92.5507 -3.62742 0
90.062 -2.06045 0
89.4942 3.74475 0
92.9439 3.68762 0
77.9142 -0.865198 0
77.887 -0.14349 0
77.8283 0.198252 0
77.9872 0.847519 0
78.2539 0.0872164 0
78.2803 0.626269 0
78.4348 -0.343 0
78.5862 -0.0199488 0
75.4858 -0.268832 0
73.192 0.151714 0
85.3102 3.22389 0
89.4574 2.97043 0
88.1288 -2.51329 0
88.7262 -4.97019 0
77.628 2.06813 0
77.1819 1.15494 0
77.8593 -0.0253935 0
77.6787 -0.0507802 0
80.4982 6.84018 0
78.3636 4.06051 0
80.1193 -4.30029 0
79.1618 -8.11317 0
77.4047 0.784816 0
77.7867 0.42425 0
90.982 0.526063 0
91.3179 1.14453 0
91.0388 -1.03775 0
90.9547 -0.206001 0
89.0985 -0.116604 0
89.273 -0.0793597 0
89.2501 0.068109 0
89.1806 0.389978 0
93.1595 0.395595 0
91.9761 1.3619 0
92.0609 -0.534714 0
93.285 -0.652619 0
77.5024 0.107127 0