# vtk DataFile Version 3.0
Unstructured Grid for Triangles
ASCII
DATASET UNSTRUCTURED_GRID
POINTS 29612 DOUBLE
-2.72397e-05 1.23686e-06 0
-2.95789e-05 9.5838e-07 0
-2.77865e-05 -3.1235e-07 0
0.0002024 5e-05 0
0.000203975 4.9875e-05 0
0.000205 5e-05 0
0.000203975 -4.9875e-05 0
0.0002024 -5e-05 0
0.000205 -5e-05 0
0.00020295 4.975e-05 0
0.00020295 -4.975e-05 0
0.000201925 4.9625e-05 0
0.000201925 -4.9625e-05 0
-5.29747e-05 -4.79887e-05 0
-5.5e-05 -5e-05 0
-5.24e-05 -5e-05 0
-5.05983e-05 -4.84325e-05 0
-4.98e-05 -5e-05 0
-4.72e-05 -5e-05 0
-4.83864e-05 -4.87761e-05 0
-4.46e-05 -5e-05 0
-4.59e-05 -4.84239e-05 0
-4.29453e-05 -4.24878e-05 0
-4.47486e-05 -4.20717e-05 0
-4.41829e-05 -4.36609e-05 0
-5.12578e-05 -4.62101e-05 0
-4.93077e-05 -4.53594e-05 0
-5.0706e-05 -4.39006e-05 0
-4.19243e-05 -4.77545e-05 0
-4.40307e-05 -4.71837e-05 0
-4.3691e-05 -4.86724e-05 0
-5.16129e-05 -4.20948e-05 0
-4.95355e-05 -4.15432e-05 0
-5.11646e-05 -4.0128e-05 0
-3.94697e-05 -4.81197e-05 0
-4.06302e-05 -4.55143e-05 0
-5.37257e-05 -3.88197e-05 0
-5.31099e-05 -4.07297e-05 0
-5.23982e-05 -3.88328e-05 0
-3.70063e-05 -4.72956e-05 0
-3.68e-05 -5e-05 0
-3.5308e-05 -4.85302e-05 0
-5.072e-05 -3.7867e-05 0
-4.85506e-05 -3.83975e-05 0
-4.90949e-05 -3.59622e-05 0
-3.37127e-05 -4.84331e-05 0
-3.16e-05 -5e-05 0
-3.26495e-05 -4.7415e-05 0
-5.5e-05 -3.5e-05 0
-5.31201e-05 -3.70361e-05 0
-5.28367e-05 -3.46817e-05 0
-3.63898e-05 -4.48809e-05 0
-3.83315e-05 -4.60336e-05 0
-3.26269e-06 -4.15503e-05 0
-5.99662e-06 -4.09556e-05 0
-5.46944e-06 -4.29488e-05 0
-5.29747e-05 4.79887e-05 0
-5.5e-05 5e-05 0
-5.5e-05 4.75e-05 0
-5.5e-05 4.5e-05 0
-5.34834e-05 4.29171e-05 0
-5.26943e-05 4.42611e-05 0
-5.34026e-05 4.60176e-05 0
-5.31099e-05 4.07297e-05 0
-5.11672e-05 4.01178e-05 0
-5.16129e-05 4.20948e-05 0
-5.24e-05 5e-05 0
-5.05983e-05 4.84325e-05 0
-5.31201e-05 3.70361e-05 0
-5.072e-05 3.7867e-05 0
-5.23982e-05 3.88328e-05 0
-4.8341e-05 4.69132e-05 0
-4.83679e-05 4.87539e-05 0
-5.28367e-05 3.46817e-05 0
-5.5e-05 3.25e-05 0
-5.25657e-05 3.28474e-05 0
-4.98e-05 5e-05 0
-5.30382e-05 3.125e-05 0
-4.19243e-05 4.77545e-05 0
-4.40015e-05 4.7335e-05 0
-4.25917e-05 4.63678e-05 0
-4.35138e-05 2.62661e-05 0
-4.14982e-05 2.74462e-05 0
-4.35654e-05 2.85217e-05 0
-4.59e-05 4.84239e-05 0
-4.36852e-05 4.87027e-05 0
-4.46e-05 5e-05 0
-5.33308e-05 2.92503e-05 0
-5.5e-05 2.75e-05 0
-5.23377e-05 2.76953e-05 0
-4.25282e-05 4.46352e-05 0
-4.09368e-05 4.35728e-05 0
-4.06302e-05 4.55143e-05 0
0.0002009 4.95e-05 0
0.0001998 5e-05 0
0.000199875 4.9375e-05 0
0.00019885 4.925e-05 0
0.0001972 5e-05 0
0.000197825 4.9125e-05 0
0.0001968 4.9e-05 0
0.000195775 4.8875e-05 0
0.0001946 5e-05 0
0.00019475 4.875e-05 0
0.000193725 4.8625e-05 0
0.000192 5e-05 0
0.0001927 4.85e-05 0
0.000191675 4.8375e-05 0
0.00019065 4.825e-05 0
0.0001894 5e-05 0
0.000189625 4.8125e-05 0
0.0001886 4.8e-05 0
0.0001868 5e-05 0
0.000187575 4.7875e-05 0
0.00018655 4.775e-05 0
0.000185515 4.8575e-05 0
0.0001842 5e-05 0
0.0001845 4.75e-05 0
0.000185525 4.7625e-05 0
0.000182564 4.829e-05 0
0.0001816 5e-05 0
0.00018245 4.725e-05 0
0.000183475 4.7375e-05 0
0.000181425 4.7125e-05 0
0.000180295 4.82657e-05 0
0.000179 5e-05 0
0.000179375 4.6875e-05 0
0.0001804 4.7e-05 0
0.000178168 4.80619e-05 0
0.0001764 5e-05 0
0.000177325 4.6625e-05 0
0.00017835 4.675e-05 0
0.000176428 4.76631e-05 0
0.0001763 4.65e-05 0
0.0001738 5e-05 0
0.0001751 4.84164e-05 0
0.000175275 4.6375e-05 0
0.000174025 4.75632e-05 0
0.0001712 5e-05 0
0.000172615 4.78449e-05 0
0.0001722 4.6e-05 0
0.000173225 4.6125e-05 0
0.00017015 4.575e-05 0
0.000171243 4.7381e-05 0
0.000169554 4.79999e-05 0
0.0001686 5e-05 0
0.000167507 4.79751e-05 0
0.000168498 4.64861e-05 0
0.000166 5e-05 0
0.00016558 4.71459e-05 0
0.000167135 4.62887e-05 0
0.0001681 4.55e-05 0
0.00016605 4.525e-05 0
0.000167075 4.5375e-05 0
0.000164059 4.61599e-05 0
0.00016394 4.79552e-05 0
0.000162881 4.6615e-05 0
0.000162975 4.4875e-05 0
0.000165025 4.5125e-05 0
0.000164 4.5e-05 0
0.000161754 4.58641e-05 0
0.000161722 4.78101e-05 0
0.000159956 4.58294e-05 0
0.000160925 4.4625e-05 0
0.00016195 4.475e-05 0
0.000157667 4.60322e-05 0
0.000158875 4.4375e-05 0
0.000159194 4.80155e-05 0
0.0001599 4.45e-05 0
0.00015785 4.425e-05 0
0.000155808 4.56757e-05 0
0.000155647 4.76701e-05 0
0.000154059 4.66642e-05 0
0.000153756 4.50083e-05 0
0.000154839 4.50446e-05 0
0.000156825 4.4125e-05 0
0.000151954 4.80508e-05 0
0.000154052 4.8477e-05 0
0.000153 5e-05 0
0.000154775 4.3875e-05 0
0.000152142 4.56625e-05 0
0.000152821 4.45753e-05 0
0.00015375 4.375e-05 0
0.0001504 5e-05 0
0.000149644 4.85168e-05 0
0.000151787 4.43178e-05 0
0.000152725 4.3625e-05 0
0.000150675 4.3375e-05 0
0.0001517 4.35e-05 0
0.000148119 4.50887e-05 0
0.000148072 4.75757e-05 0
0.000146584 4.63516e-05 0
0.000150008 4.6396e-05 0
0.000149351 4.4543e-05 0
0.00015061 4.46252e-05 0
0.0001476 4.3e-05 0
0.000148625 4.3125e-05 0
0.000146492 4.82975e-05 0
0.000144888 4.73562e-05 0
0.000146676 4.44259e-05 0
0.000145255 4.53656e-05 0
0.000145652 4.38669e-05 0
0.000141401 4.79821e-05 0
0.0001426 5e-05 0
0.00014 5e-05 0
0.000144374 4.38862e-05 0
0.00014555 4.275e-05 0
0.0001435 4.25e-05 0
0.000144525 4.2625e-05 0
0.000142746 4.38121e-05 0
0.000141288 4.43191e-05 0
0.000141707 4.32778e-05 0
0.00013921 4.38992e-05 0
0.000140355 4.5932e-05 0
0.000138302 4.5922e-05 0
0.000142912 4.58869e-05 0
0.000140592 4.30037e-05 0
0.00014145 4.225e-05 0
0.000136458 4.5869e-05 0
0.000137106 4.4063e-05 0
0.0001394 4.2e-05 0
0.000138259 4.28915e-05 0
0.000137484 4.77094e-05 0
0.000139166 4.78902e-05 0
0.00013586 4.78984e-05 0
0.000133449 4.78649e-05 0
0.000134717 4.61848e-05 0
0.000137256 4.25134e-05 0
0.000135323 4.24541e-05 0
0.000136325 4.1625e-05 0
0.000136122 4.2876e-05 0
0.000131206 4.47284e-05 0
0.000133168 4.56738e-05 0
0.000131773 4.65243e-05 0
0.000134756 4.40343e-05 0
0.000132747 4.36463e-05 0
0.000133483 4.26786e-05 0
0.000131081 4.1867e-05 0
0.000132382 4.22815e-05 0
0.000131507 4.3122e-05 0
0.000131059 4.80123e-05 0
0.00013325 4.125e-05 0
0.00012915 4.075e-05 0
0.00012982 4.18199e-05 0
0.000128915 4.26216e-05 0
0.000126366 4.47574e-05 0
0.000127331 4.30908e-05 0
0.000128781 4.44872e-05 0
0.000125336 4.28376e-05 0
0.000130218 4.31077e-05 0
0.000127894 4.16344e-05 0
0.000124774 4.69608e-05 0
0.000127668 4.64148e-05 0
0.000126591 4.8331e-05 0
0.000126722 4.18415e-05 0
0.000125768 4.11931e-05 0
0.000124326 4.13546e-05 0
0.00012505 4.025e-05 0
0.000122408 4.50118e-05 0
0.000120276 4.47432e-05 0
0.00012139 4.32235e-05 0
0.000124336 4.44132e-05 0
0.000123056 4.27595e-05 0
0.000122977 4.09049e-05 0
0.00012185 4.69217e-05 0
0.000122676 4.85947e-05 0
0.000120525 4.86094e-05 0
0.000121479 4.13153e-05 0
0.000119547 4.24221e-05 0
0.000120249 4.07448e-05 0
0.000119925 3.9625e-05 0
0.000119346 4.06114e-05 0
0.000117479 4.47279e-05 0
0.000114726 4.45259e-05 0
0.00011571 4.27814e-05 0
0.000119443 4.66611e-05 0
0.000117447 4.21596e-05 0
0.000118421 4.0752e-05 0
0.000117409 4.04437e-05 0
0.000116775 4.70073e-05 0
0.0001179 4.855e-05 0
0.000115473 4.84802e-05 0
0.00011685 3.925e-05 0
0.000117875 3.9375e-05 0
0.000115454 4.00551e-05 0
0.0001148 3.9e-05 0
0.000115825 3.9125e-05 0
0.000111704 4.23398e-05 0
0.000113786 4.26731e-05 0
0.000112589 4.43871e-05 0
0.000113234 4.06671e-05 0
0.000114754 4.13371e-05 0
0.0001106 4.42326e-05 0
0.000109703 4.24261e-05 0
0.00011275 3.875e-05 0
0.000113775 3.8875e-05 0
0.000110211 4.80875e-05 0
0.000108244 4.71951e-05 0
0.000109312 4.58413e-05 0
0.000111755 3.99116e-05 0
0.00010944 3.92972e-05 0
0.000110415 4.05876e-05 0
0.000108839 4.07536e-05 0
0.000106472 4.76905e-05 0
0.000107274 4.57868e-05 0
0.000108011 3.92415e-05 0
0.000106885 4.04365e-05 0
0.000106625 3.88708e-05 0
0.000105286 4.19254e-05 0
0.000105055 3.95469e-05 0
0.000104215 4.39764e-05 0
0.000106346 4.40629e-05 0
0.000100945 4.51249e-05 0
0.000102825 4.5614e-05 0
0.000101189 4.68452e-05 0
0.000107625 3.8125e-05 0
0.000105575 3.7875e-05 0
0.0001066 3.8e-05 0
0.000103352 4.76905e-05 0
0.000101803 4.8465e-05 0
0.000103685 3.89398e-05 0
0.00010245 3.8825e-05 0
0.000103525 3.7625e-05 0
0.000101092 3.99779e-05 0
0.000101267 3.82619e-05 0
0.000101382 4.2025e-05 0
0.000103187 4.05286e-05 0
0.000103359 4.24605e-05 0
9.87383e-05 4.5447e-05 0
9.99411e-05 4.35161e-05 0
9.744e-05 4.33145e-05 0
0.00010045 3.725e-05 0
0.000101475 3.7375e-05 0
9.70845e-05 4.65215e-05 0
9.52614e-05 4.67664e-05 0
9.61768e-05 4.49944e-05 0
9.9729e-05 3.87704e-05 0
9.78901e-05 3.9598e-05 0
9.85823e-05 3.81492e-05 0
9.62289e-05 3.93709e-05 0
9.74259e-05 3.81279e-05 0
9.7375e-05 3.6875e-05 0
9.63045e-05 3.76631e-05 0
9.58e-05 5e-05 0
9.32e-05 5e-05 0
9.47542e-05 4.8457e-05 0
9.49675e-05 3.85246e-05 0
9.36214e-05 3.89472e-05 0
9.40006e-05 3.74906e-05 0
9.66411e-05 4.12573e-05 0
9.44241e-05 4.07079e-05 0
9.03569e-05 4.24993e-05 0
9.21701e-05 4.02409e-05 0
9.27439e-05 4.27744e-05 0
8.89795e-05 4.09067e-05 0
9.03071e-05 4.0248e-05 0
9.25447e-05 3.77721e-05 0
9.3275e-05 3.6375e-05 0
9.07708e-05 3.87127e-05 0
9.11303e-05 3.70839e-05 0
9.11933e-05 4.55145e-05 0
9.30678e-05 4.73279e-05 0
9.11886e-05 4.82603e-05 0
8.87724e-05 3.88076e-05 0
8.99595e-05 3.75116e-05 0
9.02e-05 3.6e-05 0
8.89241e-05 3.6954e-05 0
8.36977e-05 4.59472e-05 0
8.36223e-05 4.83578e-05 0
8.20467e-05 4.74142e-05 0
8.71227e-05 4.03557e-05 0
8.61e-05 3.55e-05 0
8.68368e-05 3.65714e-05 0
8.5484e-05 3.6588e-05 0
8.47735e-05 4.02845e-05 0
8.23121e-05 4.21599e-05 0
8.26582e-05 3.98147e-05 0
8.46943e-05 4.2454e-05 0
8.38832e-05 3.78613e-05 0
8.35569e-05 3.63808e-05 0
8.44098e-05 3.6291e-05 0
8.5075e-05 3.5375e-05 0
8.51465e-05 4.77163e-05 0
8.3025e-05 3.5125e-05 0
8.22824e-05 3.68659e-05 0
8.1446e-05 3.57362e-05 0
8.05884e-05 3.71794e-05 0
7.53471e-05 4.77524e-05 0
7.38313e-05 4.73927e-05 0
7.39102e-05 4.61526e-05 0
7.9826e-05 3.58588e-05 0
7.88607e-05 3.76287e-05 0
7.81733e-05 3.57987e-05 0
8.16783e-05 3.84471e-05 0
8.07975e-05 4.04095e-05 0
7.52138e-05 4.04775e-05 0
7.67682e-05 4.17043e-05 0
7.49617e-05 4.21803e-05 0
7.52903e-05 3.84008e-05 0
7.38293e-05 3.93136e-05 0
[...]
CELL_DATA 58684
VECTORS velocity DOUBLE
74.3222 0.337166 0
87.5504 0.000147438 0
87.5237 -5.41913e-05 0
87.5559 -0.00138687 0
87.5283 0.00123948 0
87.561 -0.00283914 0
87.5342 0.00330193 0
77.8863 -0.00111192 0
77.9043 -0.0247684 0
78.0253 -0.00223822 0
78.1478 -0.00454046 0
78.2164 -0.409976 0
77.9446 -0.109682 0
78.3002 -0.135209 0
77.9215 -0.184763 0
78.5087 -0.169925 0
77.8872 -0.11293 0
78.8844 -0.157631 0
77.9787 -0.317864 0
79.4088 -0.110851 0
77.8991 -0.11625 0
78.8515 -0.370318 0
85.5633 -2.17067 0
77.8646 0.0125197 0
77.8708 0.051463 0
77.8638 0.0249643 0
77.9154 0.14262 0
77.904 0.023626 0
77.9081 0.188578 0
78.0217 0.0490467 0
77.8966 0.145508 0
77.9728 0.0335339 0
77.8602 0.143816 0
78.3754 0.162534 0
78.0821 1.13448 0
78.2206 0.0688822 0
77.9079 0.179964 0
78.4578 0.354584 0
87.5667 0.000253131 0
87.5721 0.000114842 0
87.5805 -0.00572322 0
87.5811 -0.00273669 0
87.5913 0.000344468 0
87.5997 -0.00475391 0
87.6013 -0.00738789 0
87.6037 -0.00344322 0
87.6119 -1.2617e-05 0
87.618 -0.00735106 0
87.618 -0.0053179 0
87.627 -0.000327428 0
87.6351 -0.0080764 0
87.6358 -0.00921839 0
87.6376 -0.00493465 0
87.6451 -0.000631563 0
87.6505 -0.00939376 0
87.6501 -0.00740898 0
87.6583 -0.00134289 0
87.6666 -0.0117565 0
87.6669 -0.0118417 0
87.6688 -0.00611541 0
87.6782 -0.000443911 0
87.6801 -0.0149884 0
87.6864 -0.00966681 0
87.6966 -0.00125622 0
87.6977 -0.0175973 0
87.6988 -0.0148604 0
87.7063 -0.0120419 0
87.7123 -0.00134891 0
87.7127 -0.0176464 0
87.7202 -0.0129585 0
87.7274 -0.00187255 0
87.7281 -0.0199616 0
87.7338 -0.0150034 0
87.7403 -0.0238975 0
87.7468 -0.00111047 0
87.7495 -0.0180658 0
87.7538 -0.0114422 0
87.7639 -0.0022686 0
87.766 -0.0252534 0
87.7837 -0.0206379 0
87.7695 -0.0204927 0
87.7843 -0.00200864 0
87.7908 -0.0130355 0
87.7864 -0.0256037 0
87.8104 -0.0161792 0
87.8064 -0.0217476 0
87.8055 -0.0296585 0
87.8153 -0.0357935 0
87.8313 -0.0229403 0
87.8448 -0.0326157 0
87.8248 -0.028006 0
87.8391 -0.0399332 0
87.8524 -0.0304487 0
87.8497 -0.0303697 0
87.858 -0.0421447 0
87.8843 -0.0393688 0
87.8674 -0.0331301 0
87.8765 -0.0446465 0
87.8918 -0.0511248 0
87.8939 -0.0379541 0
87.9149 -0.0463867 0
87.8981 -0.0415984 0
87.9151 -0.013691 0
87.9208 -0.0519256 0
87.9365 -0.0490867 0
87.9299 -0.0533473 0
87.9335 -0.0142321 0
87.9428 -0.056936 0
87.9569 -0.0628681 0
87.9658 -0.0358526 0
87.9642 -0.0382475 0
87.9531 -0.051667 0
87.9829 -0.0672305 0
87.9767 -0.027611 0
88.006 -0.0614595 0
87.992 -0.0397752 0
88.0157 -0.00383331 0
88.0159 -0.070007 0
88.0282 -0.0792933 0
88.0528 -0.0705736 0
88.0643 -0.0536609 0
88.0252 -0.0416937 0
88.0608 -0.0804535 0
88.0838 -0.0545391 0
88.0848 -0.0842482 0
88.0567 -0.0305796 0
88.0947 -0.0766286 0
88.0966 -0.0297262 0
88.1058 -0.0878796 0
88.1284 -0.10049 0
88.1469 -0.0598555 0
88.1468 -0.0843549 0
88.1167 -0.0397158 0
88.1801 -0.108107 0
88.1259 -0.0318926 0
88.1643 -0.107858 0
88.2168 -0.121132 0
88.2211 -0.0856962 0
88.2339 -0.103328 0
88.2033 -0.101049 0
88.2275 -0.111316 0
88.1874 -0.0469387 0
88.2629 -0.127447 0
88.2852 -0.140527 0
88.3004 -0.0918734 0
88.2347 -0.0682458 0
88.2775 -0.120356 0
88.295 -0.140914 0
88.2491 -0.0287391 0
88.35 -0.151884 0
88.362 -0.167408 0
88.3833 -0.103675 0
88.3111 -0.0885251 0
88.3692 -0.141187 0
88.3876 -0.167383 0
88.3228 -0.0307995 0
88.4047 -0.192882 0
88.4447 -0.206396 0
88.4449 -0.145155 0
88.4481 -0.1685 0
88.4823 -0.153833 0
88.4768 -0.213852 0
88.4555 -0.0567574 0
88.4833 -0.20174 0
88.5415 -0.206315 0
88.5015 -0.0673252 0
88.5955 -0.243515 0
88.6141 -0.225091 0
88.5908 -0.144199 0
88.6335 -0.110031 0
88.6006 -0.250003 0
88.6325 -0.274457 0
88.6076 -0.056134 0
88.6882 -0.279282 0
88.7272 -0.285992 0
88.6555 -0.205427 0
88.7001 -0.131133 0
88.7309 -0.1695 0
88.7565 -0.326264 0
88.7645 -0.11186 0
88.8062 -0.305862 0
88.8305 -0.300299 0
88.8534 -0.350117 0
88.7873 -0.00612899 0
88.9353 -0.349331 0
88.8336 -0.270483 0
88.9287 -0.245441 0
88.9868 -0.286268 0
88.979 -0.387934 0
89.0233 -0.391526 0
88.8873 -0.0887466 0
89.0526 -0.381079 0
89.0784 -0.438247 0
89.0883 -0.421616 0
89.1399 -0.0982824 0
89.0672 -0.335231 0
89.2211 -0.48631 0
89.2497 -0.368536 0
89.1797 -0.311011 0
89.2681 -0.513058 0
89.2576 -0.507255 0
89.1332 -0.0884888 0
89.343 -0.5636 0
89.3741 -0.530535 0
89.5021 -0.10491 0
89.457 -0.581837 0
89.3205 -0.408374 0
89.5306 -0.373579 0
89.5888 -0.481204 0
89.5007 -0.528241 0
89.5268 -0.632297 0
89.5523 -0.228682 0
89.6733 -0.612667 0
89.6379 -0.702816 0
89.8013 -0.716401 0
89.7353 -0.0125583 0
89.7536 -0.589286 0
89.811 -0.741142 0
89.6472 -0.182762 0
89.8671 -0.779672 0
89.9377 -0.452073 0
89.9095 -0.814995 0
90.0718 -0.254703 0
90.0533 -0.706834 0
90.0257 -0.830195 0
89.9468 -0.127417 0
90.1538 -0.858178 0
90.3121 -0.839262 0
90.1689 -0.712377 0
90.2021 -0.432109 0
90.3442 -0.963299 0
90.3325 -0.379772 0
90.467 -0.0653108 0
90.2879 -0.760183 0
90.4473 -0.956371 0
90.53 -1.02615 0
90.5317 -0.324236 0
90.6572 -0.889343 0
90.8014 -0.976072 0
90.5919 -0.108764 0
90.9358 -0.952143 0
90.8594 -1.06069 0
90.7235 -0.78463 0
90.7633 -0.379667 0
90.8712 -0.445073 0
91.0004 -1.06958 0
90.8987 -0.00783033 0
91.1011 -1.14105 0
91.2267 -1.0858 0
91.1859 -1.14162 0
91.1269 -0.250069 0
91.2822 -0.932445 0
91.5179 -0.9499 0
91.0793 -0.00594152 0
91.6075 -1.12672 0
91.7724 -0.960678 0
91.4331 -0.694009 0
91.2484 -0.287246 0
91.7708 -1.08499 0
91.4076 -0.357321 0
91.1821 -0.0173924 0
91.6934 -0.732024 0
92.0205 -0.991045 0
92.1798 -0.927013 0
91.3575 -0.0790025 0
92.1209 -0.634713 0
92.2626 -0.832392 0
91.1993 0.0290815 0
92.3965 -0.822509 0
92.5772 -0.692635 0
92.196 -0.248399 0
90.9268 0.00867629 0
92.7265 -0.468396 0
91.8503 0.188721 0
92.0776 0.293853 0
92.5967 -0.313059 0
92.372 -0.0463977 0
93.044 -0.0774915 0
91.039 0.368433 0
93.0306 -0.181911 0
92.5698 0.400043 0
93.2179 0.464715 0
90.9613 0.106293 0
93.1613 1.17427 0
92.927 1.40844 0
89.529 0.197966 0
93.3901 0.860341 0
93.28 1.34622 0
90.9054 1.47315 0
90.6708 0.701747 0
92.2177 1.10189 0
93.1696 1.88443 0
89.7852 0.330326 0
92.6605 2.78071 0
93.3465 2.12075 0
93.3577 2.34988 0
88.991 1.41525 0
91.6717 2.9152 0
92.7079 3.16986 0
88.9786 0.231768 0
92.5184 3.67439 0
92.165 3.5584 0
91.1726 5.19242 0
86.6351 0.397329 0
92.3228 4.88594 0
90.3195 3.52531 0
88.4328 1.56696 0
88.0267 2.99 0
92.0821 5.39497 0
90.93 5.8497 0
87.0807 0.609152 0
91.0013 6.67753 0
87.5397 6.78701e-05 0
87.5452 -0.000170922 0
87.5527 0.00498671 0
87.5533 0.00245977 0
87.5628 -0.000339388 0
87.5708 0.00454631 0
87.5722 0.00648462 0
87.575 0.00248658 0
87.5824 6.73977e-05 0
87.5882 0.00718472 0
87.5882 0.00468869 0
87.5967 0.000293275 0
87.6044 0.00773618 0
87.6049 0.00887899 0
87.6066 0.00477621 0
87.614 0.000604533 0
87.6192 0.00930677 0
87.619 0.00724408 0
87.6272 0.00133564 0
87.6352 0.0114784 0
87.6356 0.0116406 0
87.6461 0.0156102 0
87.6375 0.00595577 0
87.6524 0.00948931 0
87.664 0.0152037 0
87.655 0.00976867 0
87.6678 0.014939 0
87.6752 0.0121041 0
87.6813 0.0190565 0
87.6719 0.00975766 0
87.6892 0.0131835 0
87.6964 0.0213047 0
87.6883 0.0102609 0
87.71 0.0245242 0
87.7122 0.0231331 0
87.7168 0.0174724 0
87.7056 0.0123726 0
87.7191 0.0184643 0
87.7331 0.0181867 0
87.7235 0.0117098 0
87.7463 0.0307098 0
87.7442 0.0118647 0
87.7543 0.0209494 0
87.7419 0.0156589 0
87.7572 0.0259406 0
87.7768 0.029945 0
87.7812 0.0164803 0
87.772 0.0271059 0
87.7913 0.0320322 0
87.7927 0.0355257 0
87.811 0.0186214 0
87.8028 0.0230448 0
87.8162 0.0327151 0
87.829 0.0452632 0
87.8316 0.0222416 0
87.839 0.0363933 0
87.8467 0.0473395 0
87.8532 0.0271254 0
87.8388 0.0331608 0
87.8643 0.0519456 0
87.8653 0.0499323 0
87.8693 0.0318703 0
87.8782 0.0229347 0
87.8873 0.0460859 0
87.8401 0.0142167 0
87.9024 0.0536637 0
87.9296 0.063875 0
87.9137 0.0537428 0
87.8998 0.0322334 0
87.9386 0.0641632 0
87.944 0.0572596 0
87.9513 0.0278726 0
87.927 0.0524465 0
87.9608 0.0599045 0
87.9743 0.0686604 0
87.9297 0.0164375 0
87.962 0.0492264 0
88.0033 0.0795046 0
87.9684 0.0404836 0
88.0117 0.0709986 0
88.0345 0.0835984 0
88.0107 0.0611839 0
88.0205 0.0255155 0
88.0406 0.0732428 0
88.0568 0.0856876 0
88.0298 0.0212306 0
88.0754 0.0936966 0
88.0431 0.0677768 0
88.0906 0.078571 0
88.0553 0.0540749 0
88.1013 0.100511 0
88.1482 0.120922 0
88.1014 0.0313896 0
88.1076 0.0823506 0
88.169 0.127962 0
88.1438 0.0915878 0
88.0932 0.03863 0
88.1804 0.120007 0
88.1961 0.125665 0
88.1488 0.0311442 0
88.1878 0.0568165 0
88.2185 0.11056 0
88.2372 0.145326 0
88.1699 0.0768323 0
88.2602 0.141754 0
88.2761 0.150862 0
88.2609 0.0525853 0
88.2513 0.093961 0
88.3139 0.167916 0
88.304 0.1426 0
88.2132 0.0463501 0
88.3256 0.160483 0
88.3649 0.172745 0
88.3286 0.0689032 0
88.3353 0.146663 0
88.4131 0.204677 0
88.3956 0.156504 0
88.2836 0.049742 0
88.4312 0.192435 0
88.4847 0.232034 0
88.3717 0.0670309 0
88.4673 0.184953 0
88.4369 0.0869893 0
88.4997 0.192871 0
88.4211 0.108813 0
88.5328 0.245977 0
88.5762 0.246418 0
88.4781 0.0675135 0
88.5662 0.23963 0
88.63 0.276704 0
88.5685 0.0717804 0
88.5378 0.201327 0
88.6141 0.23567 0
88.6673 0.280521 0
88.5483 0.0420167 0
88.6724 0.255662 0
88.7594 0.330672 0
88.7345 0.277113 0
88.6638 0.0845965 0
88.7943 0.288436 0
88.6282 0.10757 0
88.6719 0.244341 0
88.7912 0.320134 0
88.8826 0.36343 0
88.8883 0.371479 0
88.6393 0.00775797 0
88.9725 0.422351 0
88.9802 0.411914 0
88.9921 0.363054 0
88.9253 0.17981 0
89.0146 0.196769 0
89.0108 0.406875 0
88.8011 0.111123 0
89.1153 0.460368 0
89.1038 0.450102 0
89.105 0.404627 0
88.9963 0.11721 0
89.1756 0.452055 0
89.2872 0.56182 0
89.1427 0.210819 0
89.1005 0.225024 0
89.2416 0.454136 0
89.3925 0.586624 0
89.0301 0.139769 0
89.4271 0.618891 0
89.4584 0.604124 0
89.2725 0.119283 0
89.5813 0.690418 0
89.6098 0.664148 0
89.663 0.573447 0
89.4569 0.253588 0
89.4331 0.287195 0
89.5909 0.641688 0
89.3468 0.185754 0
89.7409 0.764709 0
89.7866 0.724315 0
89.7806 0.668005 0
89.5312 0.102228 0
89.9396 0.788918 0
89.9533 0.806367 0
89.803 0.454911 0
90.0355 0.636164 0
89.8147 0.369254 0
90.0013 0.77449 0
89.7127 0.235082 0
90.1461 0.903606 0
90.1666 0.875577 0
89.742 0.185252 0
90.2286 0.806621 0
90.3971 0.932769 0
90.3164 0.908771 0
90.1975 0.212825 0
90.5914 0.978473 0
90.6326 1.0429 0
90.1641 0.630841 0
90.5266 0.774381 0
90.215 0.385183 0
90.8143 1.10017 0
90.3667 0.119497 0
90.873 1.0712 0
90.8654 1.01666 0
90.1996 0.0947569 0
90.7979 0.919699 0
91.1705 1.09122 0
91.2585 1.10182 0
90.7353 0.276407 0
91.3271 1.07709 0
91.3743 1.14782 0
90.7263 0.696851 0
91.3773 0.760566 0
90.8804 0.269497 0
91.5341 1.14817 0
90.8991 0.100765 0
91.6741 1.07435 0
91.7601 1.05983 0
90.7413 0.0697301 0
91.582 0.876616 0
92.0392 0.992814 0
92.1976 0.930062 0
91.1421 0.178425 0
92.0359 0.870822 0
92.3307 0.882634 0
91.6715 0.748791 0
92.1155 0.441756 0
91.2121 0.113129 0
92.1032 0.78941 0
91.2131 0.0417619 0
92.5714 0.777922 0
92.6552 0.630522 0
91.1223 0.0388962 0
92.3566 0.315032 0
92.7998 0.347775 0
92.9847 0.212896 0
91.175 -0.0961663 0
93.0712 0.010081 0
93.1149 -0.127621 0
91.313 -0.263267 0
93.1286 -0.157392 0
92.3196 -0.621006 0
91.61 -0.0837737 0
91.4235 0.00670436 0
93.2597 -0.449695 0
93.0137 -0.852193 0
93.4437 -1.02609 0
91.0641 -0.00486755 0
92.7139 -1.30758 0
93.4358 -1.76633 0
91.0068 -0.121855 0
92.5479 -1.27641 0
93.4053 -2.30995 0
91.9752 -1.74984 0
90.9672 -0.654166 0
93.208 -2.66278 0
93.0651 -2.95854 0
91.9487 -1.10036 0
91.3564 -3.13515 0
89.2985 -2.59528 0
92.7006 -3.00004 0
89.7418 -0.404471 0
92.6779 -3.95494 0
90.0611 7.28299 0
90.804 6.50531 0
85.336 1.92637 0
89.9531 7.24107 0
87.6909 6.63117 0
89.2868 7.87673 0
85.9413 0.755623 0
88.2948 8.08297 0
87.108 7.95816 0
84.6606 0.962794 0
87.1842 8.48501 0
92.5833 -4.37724 0
89.9921 -0.251311 0
92.3115 -4.72535 0
91.0567 -5.13138 0
90.5022 -4.41659 0
89.0733 -0.267613 0
91.298 -5.72167 0
85.8618 7.75489 0
90.6341 -7.0057 0
88.8103 -1.39794 0
90.3068 -6.77214 0
89.4314 -7.7416 0
83.4815 2.36908 0
88.989 -7.59866 0
90.2311 -4.23025 0
89.4858 -6.88218 0
87.6044 -5.09589 0
86.6619 -0.837581 0
88.5364 -6.99285 0
87.7317 -7.4061 0
85.232 8.18328 0
87.8061 -7.41704 0
87.5128 -0.453694 0
86.7612 -7.77341 0
86.2441 -8.48092 0
85.9652 -0.563301 0
85.141 -8.62775 0
85.6506 -6.33005 0
83.7453 -0.652536 0
84.1175 -8.78089 0
84.1736 -4.87036 0
85.9219 -3.83168 0
84.6617 -7.51659 0
83.5383 -7.87035 0
86.2398 4.39361 0
82.5488 0.528932 0
85.6392 2.93853 0
84.2655 -0.0728669 0
82.9915 -8.53791 0
84.8496 7.75071 0
82.2696 0.384974 0
84.2646 6.59578 0
82.1163 -8.40235 0
83.8261 -1.718 0
81.3824 -6.13425 0
84.2707 8.83574 0
81.1275 2.02811 0
84.1672 8.76097 0
81.9066 7.30841 0
81.4187 0.414091 0
82.5562 7.68299 0
82.0009 -6.38096 0
83.3242 -0.475326 0
81.2536 -8.53104 0
81.2689 -8.29834 0
82.9356 8.25199 0
80.986 7.86816 0
80.7066 0.0405789 0
82.0622 8.1223 0
80.1502 5.09019 0
80.7142 2.29169 0
80.3216 -8.47935 0
81.1946 -1.10114 0
80.6575 -8.35471 0
79.8574 8.32178 0
79.6856 -7.74739 0
80.2985 -1.07908 0
79.9344 -3.40351 0
78.4131 -7.44295 0
81.4416 -4.11412 0
78.2689 -7.19737 0
79.7742 -0.289578 0
77.3481 -6.87715 0
79.4556 2.86827 0
80.0586 0.461499 0
79.415 6.98658 0
79.4167 0.115551 0
79.2204 8.19855 0
78.9247 7.69518 0
79.0846 0.184622 0
78.1479 6.73433 0
78.8477 0.133315 0
78.7308 -6.43376 0
79.7731 -0.575563 0
79.9617 6.05534 0
77.955 0.739282 0
77.6978 6.32406 0
77.2292 -6.83824 0
79.8872 -0.231455 0
75.5894 -5.84603 0
77.917 -0.441608 0
76.4061 -5.75365 0
78.7022 2.55253 0
77.8606 0.120184 0
79.4437 -5.23696 0
77.8634 -0.113183 0
75.7047 -5.41701 0
77.0948 5.70598 0
77.0912 -4.27608 0
77.8919 -0.245142 0
75.9964 -4.63859 0
78.0727 3.14658 0
75.9152 1.99846 0
76.5831 4.93198 0
77.7111 -0.986933 0
75.8493 -5.14224 0
77.8449 0.402702 0
76.5256 6.65658 0
77.8176 -2.38151 0
77.8617 -0.0846819 0
75.5104 -4.63726 0
76.247 5.9479 0
77.8833 0.717909 0
76.1767 4.64779 0
75.9051 4.58827 0
77.84 0.380466 0
75.1014 4.08443 0
74.6587 -4.16712 0
77.864 -0.296252 0
74.3563 -4.15905 0
76.6833 -1.98313 0
77.8695 -0.202293 0
73.7257 -2.83412 0
75.1714 5.08277 0
77.8139 0.622819 0
76.38 3.25518 0
74.3282 -2.57481 0
77.7903 -0.311394 0
73.6863 -2.34539 0
74.0505 3.73988 0
77.8018 0.266798 0
74.446 3.52294 0
74.739 2.87437 0
77.8614 0.0357122 0
73.912 3.06165 0
75.0074 -1.51501 0
77.7528 -0.542828 0
74.3069 -1.33473 0
73.1431 -0.850711 0
77.1391 -0.926869 0
73.1924 -0.720439 0
76.8549 0.96069 0
77.8177 0.0765941 0
75.9925 2.44075 0
73.6901 2.46565 0
77.7078 0.0596276 0
73.2663 1.5573 0
77.4575 -0.236618 0
77.8514 -0.111659 0
73.1905 -0.237029 0
73.7095 -0.0930189 0
77.8355 -0.0661773 0
75.8907 0.308513 0
73.8748 0.528075 0
77.8423 -0.062366 0
77.3048 -5.66801 0
77.9537 -0.433399 0
77.8544 0.132049 0
78.1668 6.89697 0
79.1237 -7.75299 0
82.1753 -0.947299 0
80.5366 0.997813 0
81.8282 8.62979 0
77.8197 0.27971 0
74.6198 4.86339 0
74.0838 -2.843 0
77.8202 -0.200267 0
77.909 -0.572678 0
77.6601 -3.67703 0
77.987 0.802082 0
77.9192 0.201383 0
77.8308 -0.000821952 0
73.7574 2.05669 0
79.3765 0.466882 0
78.4524 1.57837 0
78.7842 -1.37428 0
80.3445 -0.692202 0
86.0551 -1.26805 0
85.6232 -8.47183 0
87.5392 8.08088 0
85.5796 0.46838 0
77.8108 1.66654 0
79.7716 8.01561 0
78.6775 -7.09687 0
79.3411 -2.31782 0
76.9631 -1.46066 0
74.6956 -0.223565 0
76.2802 5.84192 0
78.135 1.89527 0
77.9704 -1.7911 0
74.8852 -4.64254 0
92.0532 -5.36802 0
88.7474 -0.659659 0
88.3122 0.78879 0
92.5089 4.45927 0
77.9824 -0.815528 0
77.8917 -0.0454917 0
77.8849 0.148192 0
79.0111 0.758733 0
83.266 0.734939 0
82.895 4.11 0
81.3192 -1.99188 0
84.4878 -1.74711 0
81.7976 4.90536 0
84.7869 8.31593 0
83.6037 -8.69814 0
82.6941 -1.92141 0
86.8416 1.61061 0
87.9348 5.02618 0
86.4777 -2.79075 0
87.6609 -0.0411178 0
90.9467 -0.246778 0
93.4012 -1.27691 0
93.2502 0.474974 0
90.1094 0.0272316 0
91.1773 0.00439539 0
92.6959 0.613191 0
92.4764 -0.593054 0
91.3028 0.030577 0
79.0853 -1.44967 0
78.4993 -0.574601 0
78.4219 1.23852 0
79.2553 0.953101 0
78.2534 1.22834 0
77.8911 0.242264 0
77.8603 -0.106219 0
78.1715 -1.1294 0
89.7793 0.949331 0
91.0277 1.86991 0
90.1098 -1.13899 0
90.3358 -0.168776 0
76.0208 -0.960084 0
77.855 -0.155888 0
77.4958 -0.439519 0
77.8752 -0.376552 0
77.8582 0.204349 0
77.9057 0.967542 0
91.8287 1.00726 0
91.0255 0.158304 0
91.1399 -0.005936 0
91.573 -1.08041 0
81.7918 -0.0395654 0
81.0173 -2.83084 0
82.1042 1.80773 0
80.7684 0.448439 0
77.9136 4.05444 0
77.452 7.33276 0
77.1848 -6.27503 0
78.3675 -3.23493 0
78.8519 -2.11548 0
77.5886 -2.23278 0
78.0146 4.64712 0
78.2776 2.22798 0
91.3047 0.0420179 0
91.0171 0.139914 0
91.2166 -0.0460823 0
92.1983 0.12181 0
79.8745 -5.43409 0
80.9694 -5.2698 0
80.5419 4.64903 0
81.1184 8.55023 0
79.1849 -3.98799 0
80.3583 -2.31723 0
80.1948 3.12262 0
79.3239 1.53989 0
91.1094 1.1552 0
90.5744 0.144114 0
90.7858 -0.0124981 0
90.7179 -1.03312 0
77.3447 1.01687 0
77.8484 0.0287848 0
91.2038 -0.0608443 0
91.8442 -0.37182 0
91.561 0.259232 0
91.0559 0.0396701 0
78.8781 -0.958234 0
78.3932 -1.33476 0
79.2021 1.74632 0
78.2598 0.73565 0
77.8974 -0.147199 0
78.1715 -0.70048 0
77.979 0.315432 0
77.8715 0.136284 0
74.1865 1.71563 0
77.0016 1.52612 0
87.2465 -3.15335 0
90.6266 -6.35016 0
91.6017 5.79437 0
86.9557 2.27437 0
76.8641 -2.31828 0
74.82 -2.90479 0
89.9684 0.155392 0
90.2236 0.873765 0
89.3442 0.0735382 0
89.9097 0.824428 0
90.2424 -0.850611 0
90.0836 -0.141241 0
89.6994 -0.688299 0
89.6098 -0.0147688 0
90.9405 -0.218506 0
91.0634 -0.627559 0
90.9133 0.39496 0
90.6839 0.00862175 0
77.8613 0.178765 0
77.7009 0.540526 0
76.4989 0.452003 0
74.2775 0.846831 0
77.804 -0.25113 0
77.8443 -0.169295 0
77.4058 0.274276 0
77.3419 -0.752741 0
93.2073 -2.71445 0
90.0257 -1.74355 0
91.0161 2.21029 0
93.381 1.57499 0
78.042 -0.0629871 0
78.1504 -0.3648 0
77.8986 0.0537727 0
78.3361 0.261464 0
90.4032 -0.206312 0
90.4292 -0.531824 0
90.4452 0.356439 0
90.0886 0.114996 0
89.1901 0.163506 0
89.3605 0.51238 0
89.3892 -0.597815 0
89.2714 -0.144928 0
78.5147 -0.899713 0
79.4633 -2.13903 0
78.8904 1.61467 0
78.4991 1.27366 0
79.2371 2.88514 0
77.6297 1.85364 0
78.1705 -1.92519 0
78.8557 -2.79801 0
91.6381 -0.522747 0
92.6138 0.331505 0
92.7838 -0.327359 0
92.0605 0.55609 0
77.7221 -1.15133 0
77.8439 -1.36758 0
77.8617 1.08491 0
77.3784 1.30939 0
89.2198 0.52934 0
88.9512 0.158047 0
89.0041 -0.0997972 0
89.1696 -0.452331 0
85.3195 4.27181 0
87.3492 7.13449 0
86.8384 -8.40565 0
86.3827 -3.34666 0
75.3 -3.42935 0
77.6199 -3.51833 0
84.9377 -3.06566 0
85.5939 -1.09894 0
83.9197 0.45477 0
87.2957 3.10763 0
74.9021 4.63152 0
76.7801 2.73602 0
89.821 -0.0517589 0
89.9916 -0.538635 0
89.8761 0.354343 0
89.7913 0.0953179 0
89.1996 -0.36935 0
88.9649 -1.51229 0
89.5243 2.08393 0
88.5354 0.271799 0
83.2766 1.39864 0
81.5016 0.351083 0
82.6438 -0.337972 0
83.3202 -3.11401 0
91.5255 0.332767 0
91.8118 0.876265 0
91.9668 -0.953035 0
91.8329 -0.0710104 0
82.2977 -3.83512 0
83.4065 -1.83867 0
82.6123 2.71453 0
85.204 5.99291 0
88.8648 0.322462 0
88.7431 0.0611883 0
88.8956 -0.097168 0
88.8628 -0.335136 0
89.366 -0.180628 0
89.5064 -0.00972049 0
89.483 0.101044 0
89.344 0.423294 0
80.0033 0.498627 0
79.7566 1.30599 0
80.0226 -1.14772 0
80.8829 -0.320281 0
81.5716 2.83063 0
79.9246 1.95127 0
79.3064 -2.83799 0
78.4608 -2.86624 0
90.9801 -0.475958 0
90.7239 -0.275907 0
90.5358 0.372321 0
91.4933 0.614445 0
79.9306 3.85075 0
80.4356 2.57473 0
79.3638 -0.825561 0
79.1872 -0.294228 0
79.0212 0.266147 0
79.763 0.889217 0
76.6213 -0.875636 0
77.5766 -1.34974 0
92.5586 -3.62856 0
90.0711 -2.06133 0
89.5071 3.74652 0
92.9515 3.68874 0
77.9217 -0.865555 0
77.8883 -0.143705 0
77.8303 0.198052 0
77.9946 0.847987 0
78.2629 0.0872142 0
78.2897 0.626665 0
78.4452 -0.343125 0
78.5977 -0.0199186 0
75.4995 -0.269182 0
73.2061 0.151715 0
85.3275 3.22563 0
89.4691 2.9716 0
88.1426 -2.51445 0
88.741 -4.973 0
77.6407 2.0694 0
77.1934 1.1556 0
77.8598 -0.0254598 0
77.6851 -0.0510558 0
80.5153 6.84417 0
78.3793 4.06311 0
80.1367 -4.30308 0
79.1779 -8.11755 0
77.4142 0.784912 0
77.7914 0.42422 0
90.9485 0.525265 0
91.2852 1.14252 0
91.002 -1.03716 0
90.9227 -0.205705 0
89.0154 -0.117099 0
89.1964 -0.0797102 0
89.1723 0.0683996 0
89.0963 0.391535 0
93.1522 0.396287 0
91.9773 1.36235 0
92.0554 -0.535225 0
93.2797 -0.652827 0