# vtk DataFile Version 3.0
Unstructured Grid for Triangles
ASCII
DATASET UNSTRUCTURED_GRID
POINTS 29612 DOUBLE
-2.72397e-05 1.23686e-06 0
-2.95789e-05 9.5838e-07 0
-2.77865e-05 -3.1235e-07 0
0.0002024 5e-05 0
0.000203975 4.9875e-05 0
0.000205 5e-05 0
0.000203975 -4.9875e-05 0
0.0002024 -5e-05 0
0.000205 -5e-05 0
0.00020295 4.975e-05 0
0.00020295 -4.975e-05 0
0.000201925 4.9625e-05 0
0.000201925 -4.9625e-05 0
-5.29747e-05 -4.79887e-05 0
-5.5e-05 -5e-05 0
-5.24e-05 -5e-05 0
-5.05983e-05 -4.84325e-05 0
-4.98e-05 -5e-05 0
-4.72e-05 -5e-05 0
-4.83864e-05 -4.87761e-05 0
-4.46e-05 -5e-05 0
-4.59e-05 -4.84239e-05 0
-4.29453e-05 -4.24878e-05 0
-4.47486e-05 -4.20717e-05 0
-4.41829e-05 -4.36609e-05 0
-5.12578e-05 -4.62101e-05 0
-4.93077e-05 -4.53594e-05 0
-5.0706e-05 -4.39006e-05 0
-4.19243e-05 -4.77545e-05 0
-4.40307e-05 -4.71837e-05 0
-4.3691e-05 -4.86724e-05 0
-5.16129e-05 -4.20948e-05 0
-4.95355e-05 -4.15432e-05 0
-5.11646e-05 -4.0128e-05 0
-3.94697e-05 -4.81197e-05 0
-4.06302e-05 -4.55143e-05 0
-5.37257e-05 -3.88197e-05 0
-5.31099e-05 -4.07297e-05 0
-5.23982e-05 -3.88328e-05 0
-3.70063e-05 -4.72956e-05 0
-3.68e-05 -5e-05 0
-3.5308e-05 -4.85302e-05 0
-5.072e-05 -3.7867e-05 0
-4.85506e-05 -3.83975e-05 0
-4.90949e-05 -3.59622e-05 0
-3.37127e-05 -4.84331e-05 0
-3.16e-05 -5e-05 0
-3.26495e-05 -4.7415e-05 0
-5.5e-05 -3.5e-05 0
-5.31201e-05 -3.70361e-05 0
-5.28367e-05 -3.46817e-05 0
-3.63898e-05 -4.48809e-05 0
-3.83315e-05 -4.60336e-05 0
-3.26269e-06 -4.15503e-05 0
-5.99662e-06 -4.09556e-05 0
-5.46944e-06 -4.29488e-05 0
-5.29747e-05 4.79887e-05 0
-5.5e-05 5e-05 0
-5.5e-05 4.75e-05 0
-5.5e-05 4.5e-05 0
-5.34834e-05 4.29171e-05 0
-5.26943e-05 4.42611e-05 0
-5.34026e-05 4.60176e-05 0
-5.31099e-05 4.07297e-05 0
-5.11672e-05 4.01178e-05 0
-5.16129e-05 4.20948e-05 0
-5.24e-05 5e-05 0
-5.05983e-05 4.84325e-05 0
-5.31201e-05 3.70361e-05 0
-5.072e-05 3.7867e-05 0
-5.23982e-05 3.88328e-05 0
-4.8341e-05 4.69132e-05 0
-4.83679e-05 4.87539e-05 0
-5.28367e-05 3.46817e-05 0
-5.5e-05 3.25e-05 0
-5.25657e-05 3.28474e-05 0
-4.98e-05 5e-05 0
-5.30382e-05 3.125e-05 0
-4.19243e-05 4.77545e-05 0
-4.40015e-05 4.7335e-05 0
-4.25917e-05 4.63678e-05 0
-4.35138e-05 2.62661e-05 0
-4.14982e-05 2.74462e-05 0
-4.35654e-05 2.85217e-05 0
-4.59e-05 4.84239e-05 0
-4.36852e-05 4.87027e-05 0
-4.46e-05 5e-05 0
-5.33308e-05 2.92503e-05 0
-5.5e-05 2.75e-05 0
-5.23377e-05 2.76953e-05 0
-4.25282e-05 4.46352e-05 0
-4.09368e-05 4.35728e-05 0
-4.06302e-05 4.55143e-05 0
0.0002009 4.95e-05 0
0.0001998 5e-05 0
0.000199875 4.9375e-05 0
0.00019885 4.925e-05 0
0.0001972 5e-05 0
0.000197825 4.9125e-05 0
0.0001968 4.9e-05 0
0.000195775 4.8875e-05 0
0.0001946 5e-05 0
0.00019475 4.875e-05 0
0.000193725 4.8625e-05 0
0.000192 5e-05 0
0.0001927 4.85e-05 0
0.000191675 4.8375e-05 0
0.00019065 4.825e-05 0
0.0001894 5e-05 0
0.000189625 4.8125e-05 0
0.0001886 4.8e-05 0
0.0001868 5e-05 0
0.000187575 4.7875e-05 0
0.00018655 4.775e-05 0
0.000185515 4.8575e-05 0
0.0001842 5e-05 0
0.0001845 4.75e-05 0
0.000185525 4.7625e-05 0
0.000182564 4.829e-05 0
0.0001816 5e-05 0
0.00018245 4.725e-05 0
0.000183475 4.7375e-05 0
0.000181425 4.7125e-05 0
0.000180295 4.82657e-05 0
0.000179 5e-05 0
0.000179375 4.6875e-05 0
0.0001804 4.7e-05 0
0.000178168 4.80619e-05 0
0.0001764 5e-05 0
0.000177325 4.6625e-05 0
0.00017835 4.675e-05 0
0.000176428 4.76631e-05 0
0.0001763 4.65e-05 0
0.0001738 5e-05 0
0.0001751 4.84164e-05 0
0.000175275 4.6375e-05 0
0.000174025 4.75632e-05 0
0.0001712 5e-05 0
0.000172615 4.78449e-05 0
0.0001722 4.6e-05 0
0.000173225 4.6125e-05 0
0.00017015 4.575e-05 0
0.000171243 4.7381e-05 0
0.000169554 4.79999e-05 0
0.0001686 5e-05 0
0.000167507 4.79751e-05 0
0.000168498 4.64861e-05 0
0.000166 5e-05 0
0.00016558 4.71459e-05 0
0.000167135 4.62887e-05 0
0.0001681 4.55e-05 0
0.00016605 4.525e-05 0
0.000167075 4.5375e-05 0
0.000164059 4.61599e-05 0
0.00016394 4.79552e-05 0
0.000162881 4.6615e-05 0
0.000162975 4.4875e-05 0
0.000165025 4.5125e-05 0
0.000164 4.5e-05 0
0.000161754 4.58641e-05 0
0.000161722 4.78101e-05 0
0.000159956 4.58294e-05 0
0.000160925 4.4625e-05 0
0.00016195 4.475e-05 0
0.000157667 4.60322e-05 0
0.000158875 4.4375e-05 0
0.000159194 4.80155e-05 0
0.0001599 4.45e-05 0
0.00015785 4.425e-05 0
0.000155808 4.56757e-05 0
0.000155647 4.76701e-05 0
0.000154059 4.66642e-05 0
0.000153756 4.50083e-05 0
0.000154839 4.50446e-05 0
0.000156825 4.4125e-05 0
0.000151954 4.80508e-05 0
0.000154052 4.8477e-05 0
0.000153 5e-05 0
0.000154775 4.3875e-05 0
0.000152142 4.56625e-05 0
0.000152821 4.45753e-05 0
0.00015375 4.375e-05 0
0.0001504 5e-05 0
0.000149644 4.85168e-05 0
0.000151787 4.43178e-05 0
0.000152725 4.3625e-05 0
0.000150675 4.3375e-05 0
0.0001517 4.35e-05 0
0.000148119 4.50887e-05 0
0.000148072 4.75757e-05 0
0.000146584 4.63516e-05 0
0.000150008 4.6396e-05 0
0.000149351 4.4543e-05 0
0.00015061 4.46252e-05 0
0.0001476 4.3e-05 0
0.000148625 4.3125e-05 0
0.000146492 4.82975e-05 0
0.000144888 4.73562e-05 0
0.000146676 4.44259e-05 0
0.000145255 4.53656e-05 0
0.000145652 4.38669e-05 0
0.000141401 4.79821e-05 0
0.0001426 5e-05 0
0.00014 5e-05 0
0.000144374 4.38862e-05 0
0.00014555 4.275e-05 0
0.0001435 4.25e-05 0
0.000144525 4.2625e-05 0
0.000142746 4.38121e-05 0
0.000141288 4.43191e-05 0
0.000141707 4.32778e-05 0
0.00013921 4.38992e-05 0
0.000140355 4.5932e-05 0
0.000138302 4.5922e-05 0
0.000142912 4.58869e-05 0
0.000140592 4.30037e-05 0
0.00014145 4.225e-05 0
0.000136458 4.5869e-05 0
0.000137106 4.4063e-05 0
0.0001394 4.2e-05 0
0.000138259 4.28915e-05 0
0.000137484 4.77094e-05 0
0.000139166 4.78902e-05 0
0.00013586 4.78984e-05 0
0.000133449 4.78649e-05 0
0.000134717 4.61848e-05 0
0.000137256 4.25134e-05 0
0.000135323 4.24541e-05 0
0.000136325 4.1625e-05 0
0.000136122 4.2876e-05 0
0.000131206 4.47284e-05 0
0.000133168 4.56738e-05 0
0.000131773 4.65243e-05 0
0.000134756 4.40343e-05 0
0.000132747 4.36463e-05 0
0.000133483 4.26786e-05 0
0.000131081 4.1867e-05 0
0.000132382 4.22815e-05 0
0.000131507 4.3122e-05 0
0.000131059 4.80123e-05 0
0.00013325 4.125e-05 0
0.00012915 4.075e-05 0
0.00012982 4.18199e-05 0
0.000128915 4.26216e-05 0
0.000126366 4.47574e-05 0
0.000127331 4.30908e-05 0
0.000128781 4.44872e-05 0
0.000125336 4.28376e-05 0
0.000130218 4.31077e-05 0
0.000127894 4.16344e-05 0
0.000124774 4.69608e-05 0
0.000127668 4.64148e-05 0
0.000126591 4.8331e-05 0
0.000126722 4.18415e-05 0
0.000125768 4.11931e-05 0
0.000124326 4.13546e-05 0
0.00012505 4.025e-05 0
0.000122408 4.50118e-05 0
0.000120276 4.47432e-05 0
0.00012139 4.32235e-05 0
0.000124336 4.44132e-05 0
0.000123056 4.27595e-05 0
0.000122977 4.09049e-05 0
0.00012185 4.69217e-05 0
0.000122676 4.85947e-05 0
0.000120525 4.86094e-05 0
0.000121479 4.13153e-05 0
0.000119547 4.24221e-05 0
0.000120249 4.07448e-05 0
0.000119925 3.9625e-05 0
0.000119346 4.06114e-05 0
0.000117479 4.47279e-05 0
0.000114726 4.45259e-05 0
0.00011571 4.27814e-05 0
0.000119443 4.66611e-05 0
0.000117447 4.21596e-05 0
0.000118421 4.0752e-05 0
0.000117409 4.04437e-05 0
0.000116775 4.70073e-05 0
0.0001179 4.855e-05 0
0.000115473 4.84802e-05 0
0.00011685 3.925e-05 0
0.000117875 3.9375e-05 0
0.000115454 4.00551e-05 0
0.0001148 3.9e-05 0
0.000115825 3.9125e-05 0
0.000111704 4.23398e-05 0
0.000113786 4.26731e-05 0
0.000112589 4.43871e-05 0
0.000113234 4.06671e-05 0
0.000114754 4.13371e-05 0
0.0001106 4.42326e-05 0
0.000109703 4.24261e-05 0
0.00011275 3.875e-05 0
0.000113775 3.8875e-05 0
0.000110211 4.80875e-05 0
0.000108244 4.71951e-05 0
0.000109312 4.58413e-05 0
0.000111755 3.99116e-05 0
0.00010944 3.92972e-05 0
0.000110415 4.05876e-05 0
0.000108839 4.07536e-05 0
0.000106472 4.76905e-05 0
0.000107274 4.57868e-05 0
0.000108011 3.92415e-05 0
0.000106885 4.04365e-05 0
0.000106625 3.88708e-05 0
0.000105286 4.19254e-05 0
0.000105055 3.95469e-05 0
0.000104215 4.39764e-05 0
0.000106346 4.40629e-05 0
0.000100945 4.51249e-05 0
0.000102825 4.5614e-05 0
0.000101189 4.68452e-05 0
0.000107625 3.8125e-05 0
0.000105575 3.7875e-05 0
0.0001066 3.8e-05 0
0.000103352 4.76905e-05 0
0.000101803 4.8465e-05 0
0.000103685 3.89398e-05 0
0.00010245 3.8825e-05 0
0.000103525 3.7625e-05 0
0.000101092 3.99779e-05 0
0.000101267 3.82619e-05 0
0.000101382 4.2025e-05 0
0.000103187 4.05286e-05 0
0.000103359 4.24605e-05 0
9.87383e-05 4.5447e-05 0
9.99411e-05 4.35161e-05 0
9.744e-05 4.33145e-05 0
0.00010045 3.725e-05 0
0.000101475 3.7375e-05 0
9.70845e-05 4.65215e-05 0
9.52614e-05 4.67664e-05 0
9.61768e-05 4.49944e-05 0
9.9729e-05 3.87704e-05 0
9.78901e-05 3.9598e-05 0
9.85823e-05 3.81492e-05 0
9.62289e-05 3.93709e-05 0
9.74259e-05 3.81279e-05 0
9.7375e-05 3.6875e-05 0
9.63045e-05 3.76631e-05 0
9.58e-05 5e-05 0
9.32e-05 5e-05 0
9.47542e-05 4.8457e-05 0
9.49675e-05 3.85246e-05 0
9.36214e-05 3.89472e-05 0
9.40006e-05 3.74906e-05 0
9.66411e-05 4.12573e-05 0
9.44241e-05 4.07079e-05 0
9.03569e-05 4.24993e-05 0
9.21701e-05 4.02409e-05 0
9.27439e-05 4.27744e-05 0
8.89795e-05 4.09067e-05 0
9.03071e-05 4.0248e-05 0
9.25447e-05 3.77721e-05 0
9.3275e-05 3.6375e-05 0
9.07708e-05 3.87127e-05 0
9.11303e-05 3.70839e-05 0
9.11933e-05 4.55145e-05 0
9.30678e-05 4.73279e-05 0
9.11886e-05 4.82603e-05 0
8.87724e-05 3.88076e-05 0
8.99595e-05 3.75116e-05 0
9.02e-05 3.6e-05 0
8.89241e-05 3.6954e-05 0
8.36977e-05 4.59472e-05 0
8.36223e-05 4.83578e-05 0
8.20467e-05 4.74142e-05 0
8.71227e-05 4.03557e-05 0
8.61e-05 3.55e-05 0
8.68368e-05 3.65714e-05 0
8.5484e-05 3.6588e-05 0
8.47735e-05 4.02845e-05 0
8.23121e-05 4.21599e-05 0
8.26582e-05 3.98147e-05 0
8.46943e-05 4.2454e-05 0
8.38832e-05 3.78613e-05 0
8.35569e-05 3.63808e-05 0
8.44098e-05 3.6291e-05 0
8.5075e-05 3.5375e-05 0
8.51465e-05 4.77163e-05 0
8.3025e-05 3.5125e-05 0
8.22824e-05 3.68659e-05 0
8.1446e-05 3.57362e-05 0
8.05884e-05 3.71794e-05 0
7.53471e-05 4.77524e-05 0
7.38313e-05 4.73927e-05 0
7.39102e-05 4.61526e-05 0
7.9826e-05 3.58588e-05 0
7.88607e-05 3.76287e-05 0
7.81733e-05 3.57987e-05 0
8.16783e-05 3.84471e-05 0
8.07975e-05 4.04095e-05 0
7.52138e-05 4.04775e-05 0
7.67682e-05 4.17043e-05 0
7.49617e-05 4.21803e-05 0
7.52903e-05 3.84008e-05 0
7.38293e-05 3.93136e-05 0
[...]
CELL_DATA 58684
VECTORS velocity DOUBLE
74.0564 0.33758 0
84.8617 -0.000110246 0
84.8361 0.000137556 0
84.8664 -0.00139603 0
84.8396 0.00135308 0
84.8725 -0.00229743 0
84.8462 0.00253634 0
77.8637 -0.00266175 0
77.871 -0.0235182 0
77.9516 -0.00382128 0
78.047 -0.0066599 0
78.0979 -0.405689 0
77.8928 -0.109196 0
78.172 -0.133781 0
77.8757 -0.184676 0
78.3512 -0.170976 0
77.8638 -0.111465 0
78.6835 -0.156613 0
77.9125 -0.31579 0
79.1668 -0.113045 0
77.8777 -0.113711 0
78.6565 -0.367044 0
85.0612 -2.16897 0
77.856 0.0117151 0
77.8533 0.0510875 0
77.8558 0.024929 0
77.8773 0.140431 0
77.8706 0.022531 0
77.8759 0.188038 0
77.9502 0.0491183 0
77.8738 0.144493 0
77.9134 0.0321399 0
77.8354 0.144542 0
78.2356 0.162621 0
77.9529 1.12613 0
78.1062 0.0674971 0
77.8862 0.17635 0
78.305 0.353047 0
84.8785 0.000111802 0
84.8834 -0.000232793 0
84.8933 -0.00516131 0
84.8964 -0.00302275 0
84.9053 -0.000555231 0
84.9141 -0.00493536 0
84.9176 -0.00674762 0
84.9215 -0.00292501 0
84.9295 -0.000290548 0
84.9373 -0.00720801 0
84.9398 -0.00506251 0
84.9485 -0.000910157 0
84.9581 -0.00803988 0
84.9608 -0.00846346 0
84.9643 -0.00427129 0
84.9726 -0.000540173 0
84.9802 -0.00896617 0
84.9825 -0.00673627 0
84.9916 -0.00146838 0
85.0021 -0.0110899 0
85.0051 -0.0108638 0
85.0084 -0.00565644 0
85.0194 -0.00028744 0
85.0225 -0.012226 0
85.0337 -0.00842822 0
85.0473 -2.22175e-06 0
85.0485 -0.0149934 0
85.0529 -0.0121035 0
85.0617 -0.00979305 0
85.0719 -0.000452664 0
85.0752 -0.0145586 0
85.0839 -0.0102798 0
85.0969 -0.00136415 0
85.099 -0.0167604 0
85.1062 -0.0115448 0
85.1164 -0.0203102 0
85.1294 -0.000261077 0
85.1333 -0.0153337 0
85.1415 -0.0100614 0
85.1599 -0.000898491 0
85.1623 -0.0204062 0
85.193 -0.0164206 0
85.1678 -0.0161128 0
85.1968 9.4679e-05 0
85.21 -0.011625 0
85.2 -0.0215525 0
85.244 -0.0132722 0
85.2343 -0.0168855 0
85.2266 -0.0237452 0
85.2439 -0.0287025 0
85.2818 -0.0182053 0
85.2991 -0.0255664 0
85.2659 -0.0213166 0
85.2885 -0.0318292 0
85.3209 -0.0247032 0
85.3129 -0.0254594 0
85.3233 -0.0342502 0
85.3716 -0.0324403 0
85.3525 -0.029547 0
85.3572 -0.0367483 0
85.3852 -0.0442337 0
85.4026 -0.0346485 0
85.442 -0.0412202 0
85.402 -0.0336087 0
85.4521 -0.0122687 0
85.443 -0.0448496 0
85.4756 -0.0427921 0
85.4612 -0.0458855 0
85.4932 -0.0156528 0
85.4828 -0.0493676 0
85.5065 -0.0541777 0
85.5545 -0.0314853 0
85.5448 -0.0340113 0
85.5191 -0.0467724 0
85.5673 -0.0599756 0
85.5819 -0.0253396 0
85.6165 -0.0552641 0
85.6042 -0.0360523 0
85.6759 -0.000880991 0
85.6286 -0.0621621 0
85.6523 -0.070846 0
85.706 -0.0631498 0
85.7487 -0.0476288 0
85.6838 -0.0400787 0
85.7186 -0.0727721 0
85.7927 -0.0487037 0
85.7703 -0.0768851 0
85.7529 -0.0257426 0
85.7914 -0.0688549 0
85.8411 -0.0235547 0
85.8116 -0.0824266 0
85.8535 -0.096165 0
85.9302 -0.0571012 0
85.9045 -0.0770342 0
85.8845 -0.0349278 0
85.9636 -0.104425 0
85.9066 -0.0274127 0
85.9274 -0.103065 0
86.0321 -0.11589 0
86.0674 -0.0802935 0
86.095 -0.102339 0
86.0228 -0.0984202 0
86.0628 -0.105679 0
86.0454 -0.0494635 0
86.1292 -0.123692 0
86.1648 -0.134526 0
86.2386 -0.0887823 0
86.1287 -0.0629721 0
86.1679 -0.115087 0
86.1981 -0.139342 0
86.1761 -0.0259225 0
86.3033 -0.147494 0
86.319 -0.162909 0
86.4065 -0.0979239 0
86.2814 -0.0907303 0
86.35 -0.133865 0
86.3791 -0.165268 0
86.3286 -0.0268324 0
86.4018 -0.190767 0
86.4749 -0.204155 0
86.5192 -0.145879 0
86.5009 -0.166654 0
86.5897 -0.154923 0
86.54 -0.210643 0
86.5846 -0.0534926 0
86.5578 -0.196093 0
86.6661 -0.2008 0
86.663 -0.0665646 0
86.7596 -0.241276 0
86.8033 -0.222916 0
86.7884 -0.138179 0
86.893 -0.108854 0
86.7615 -0.244239 0
86.8116 -0.270589 0
86.8587 -0.0550454 0
86.919 -0.273399 0
86.9882 -0.284041 0
86.893 -0.203666 0
86.9924 -0.126695 0
87.0445 -0.17197 0
87.024 -0.323948 0
87.1182 -0.11119 0
87.1184 -0.302173 0
87.1651 -0.29701 0
87.192 -0.348337 0
87.17 -0.00230576 0
87.3254 -0.349672 0
87.1889 -0.268618 0
87.3563 -0.244358 0
87.4454 -0.287749 0
87.3839 -0.387171 0
87.4619 -0.393441 0
87.3208 -0.0879004 0
87.5147 -0.382675 0
87.5434 -0.44309 0
87.5629 -0.427483 0
87.725 -0.101169 0
87.5557 -0.341321 0
87.7506 -0.493476 0
87.8363 -0.380354 0
87.7448 -0.319481 0
87.832 -0.527381 0
87.8066 -0.516688 0
87.7046 -0.0891928 0
87.94 -0.581827 0
87.986 -0.545495 0
88.2467 -0.103904 0
88.1112 -0.605401 0
87.9294 -0.417943 0
88.2501 -0.387809 0
88.3203 -0.503344 0
88.1832 -0.551386 0
88.203 -0.655875 0
88.3136 -0.239747 0
88.4159 -0.635727 0
88.3555 -0.733891 0
88.5838 -0.7475 0
88.58 -0.00922208 0
88.5437 -0.619603 0
88.6014 -0.776544 0
88.451 -0.193165 0
88.6751 -0.81884 0
88.8062 -0.470051 0
88.7268 -0.857087 0
89.0102 -0.262972 0
88.9365 -0.736885 0
88.8905 -0.870973 0
88.8599 -0.135472 0
89.0528 -0.898936 0
89.2695 -0.876466 0
89.1021 -0.749794 0
89.1648 -0.448935 0
89.3038 -1.01105 0
89.3457 -0.394057 0
89.5374 -0.0676639 0
89.2519 -0.791588 0
89.4398 -0.998603 0
89.5379 -1.07569 0
89.6021 -0.333511 0
89.7117 -0.922944 0
89.8856 -1.00936 0
89.6972 -0.114179 0
90.0532 -0.978203 0
89.9536 -1.09794 0
89.8075 -0.813101 0
89.8898 -0.389627 0
90.0121 -0.45399 0
90.1293 -1.09963 0
90.0877 -0.00545099 0
90.2477 -1.17331 0
90.3987 -1.10671 0
90.3496 -1.16865 0
90.3463 -0.249352 0
90.4726 -0.946384 0
90.7449 -0.950126 0
90.3223 -0.00375396 0
90.8404 -1.13245 0
91.0317 -0.952252 0
90.6561 -0.693644 0
90.4817 -0.284689 0
91.0272 -1.07937 0
90.6522 -0.350291 0
90.4702 -0.0150585 0
90.9556 -0.717494 0
91.3072 -0.969098 0
91.4808 -0.898413 0
90.6478 -0.0680038 0
91.4267 -0.602493 0
91.5734 -0.796447 0
90.5125 0.0355233 0
91.7174 -0.77718 0
91.9102 -0.637794 0
91.5171 -0.207694 0
90.2687 0.0112191 0
92.0689 -0.401527 0
91.1836 0.224485 0
91.4193 0.337818 0
91.9365 -0.250806 0
91.7105 0.0096708 0
92.4005 0.00107809 0
90.3901 0.388328 0
92.3863 -0.103009 0
91.9228 0.467549 0
92.5821 0.55567 0
90.3072 0.113548 0
92.5284 1.26135 0
92.2957 1.48939 0
88.9237 0.199458 0
92.7552 0.957482 0
92.6457 1.43392 0
90.2842 1.50928 0
90.0391 0.721334 0
91.5813 1.1591 0
92.5376 1.96674 0
89.1768 0.334717 0
92.0337 2.85493 0
92.7135 2.21559 0
92.7248 2.44147 0
88.406 1.42726 0
91.0577 2.97422 0
92.0816 3.2438 0
88.3922 0.235113 0
91.8951 3.74465 0
91.5484 3.61332 0
90.5713 5.23142 0
86.1037 0.396664 0
91.7039 4.94127 0
89.7234 3.56267 0
87.8608 1.57587 0
87.4706 3.00027 0
91.4687 5.44363 0
90.3316 5.88037 0
86.5417 0.610953 0
90.3997 6.70661 0
84.8521 0.000161346 0
84.8572 0.000190219 0
84.8662 0.00463791 0
84.8692 0.00258144 0
84.8775 0.000550088 0
84.886 0.00471481 0
84.8892 0.00586903 0
84.8934 0.00238091 0
84.9008 0.000338542 0
84.9085 0.00687325 0
84.9108 0.00470831 0
84.9191 0.000880865 0
84.9282 0.00752586 0
84.9309 0.00802884 0
84.9343 0.0040594 0
84.9425 0.000521134 0
84.9499 0.00871367 0
84.9524 0.00641903 0
84.9615 0.00144028 0
84.9718 0.010959 0
84.9747 0.0106435 0
84.9881 0.0130912 0
84.9781 0.00545369 0
84.9982 0.0085828 0
85.0126 0.0130795 0
85.0031 0.00846842 0
85.0225 0.0122949 0
85.0312 0.00982588 0
85.0405 0.0165533 0
85.0278 0.00871285 0
85.053 0.0102736 0
85.0637 0.0184795 0
85.0539 0.00912571 0
85.0857 0.0209826 0
85.0906 0.0180162 0
85.0986 0.01424 0
85.0809 0.0112808 0
85.1029 0.0154877 0
85.1253 0.0139139 0
85.1112 0.0101727 0
85.1476 0.0250058 0
85.1499 0.00959597 0
85.163 0.016342 0
85.1433 0.0135917 0
85.1701 0.0214384 0
85.1971 0.0237449 0
85.2137 0.0134001 0
85.1955 0.0228078 0
85.2234 0.0265058 0
85.2295 0.0285268 0
85.2655 0.0134646 0
85.2519 0.0182127 0
85.2691 0.0255357 0
85.2884 0.0372691 0
85.3067 0.0171345 0
85.3082 0.028882 0
85.3215 0.0396624 0
85.3525 0.0248145 0
85.3217 0.0292851 0
85.3559 0.04494 0
85.3614 0.0421136 0
85.3824 0.0270571 0
85.4 0.0191558 0
85.4124 0.0407254 0
85.3289 0.0147776 0
85.4318 0.0462493 0
85.4774 0.0550549 0
85.4571 0.0472309 0
85.4401 0.0282224 0
85.4985 0.0561701 0
85.5098 0.0488651 0
85.5548 0.0255251 0
85.4912 0.0475578 0
85.5499 0.0525041 0
85.575 0.0619887 0
85.5101 0.0153438 0
85.5645 0.0444539 0
85.6263 0.0715294 0
85.5802 0.0367752 0
85.6443 0.0621215 0
85.6923 0.0773207 0
85.6642 0.0574259 0
85.7028 0.0226029 0
85.7117 0.0677426 0
85.7349 0.0790591 0
85.7307 0.0217141 0
85.7729 0.0881261 0
85.7342 0.0641544 0
85.8144 0.0719478 0
85.7608 0.0487399 0
85.8262 0.0973113 0
85.918 0.117949 0
85.883 0.0277001 0
85.8682 0.0815157 0
85.9562 0.125775 0
85.9354 0.0878819 0
85.8612 0.034499 0
85.9831 0.114902 0
86.0217 0.122394 0
85.9899 0.0298153 0
86.0508 0.0531528 0
86.0779 0.10522 0
86.0947 0.143173 0
86.0114 0.0772728 0
86.1426 0.13713 0
86.1762 0.148322 0
86.2092 0.0474753 0
86.1604 0.0899049 0
86.2503 0.166355 0
86.2505 0.142161 0
86.1269 0.0496616 0
86.2846 0.158815 0
86.3566 0.167383 0
86.3445 0.0655287 0
86.3096 0.146121 0
86.4358 0.202464 0
86.4273 0.154109 0
86.2678 0.0505663 0
86.4724 0.185776 0
86.5717 0.229726 0
86.4347 0.0660777 0
86.5635 0.180133 0
86.5497 0.0825158 0
86.6246 0.191654 0
86.5163 0.109292 0
86.6563 0.241494 0
86.7394 0.23933 0
86.6407 0.0670519 0
86.73 0.236291 0
86.8331 0.271546 0
86.8118 0.0674358 0
86.6928 0.20055 0
86.8338 0.23372 0
86.9011 0.274027 0
86.7721 0.0436751 0
86.9234 0.24978 0
87.051 0.326498 0
87.0377 0.274551 0
86.9763 0.0816955 0
87.1341 0.289324 0
86.908 0.104907 0
86.9288 0.243391 0
87.114 0.318426 0
87.2507 0.361068 0
87.2675 0.370989 0
86.9377 0.00336022 0
87.3879 0.424363 0
87.4061 0.41179 0
87.4506 0.36915 0
87.3863 0.179866 0
87.5184 0.19533 0
87.4602 0.411122 0
87.1942 0.111222 0
87.6101 0.462954 0
87.6041 0.458176 0
87.621 0.413728 0
87.5105 0.121491 0
87.7183 0.459549 0
87.8612 0.578127 0
87.7238 0.218247 0
87.6477 0.227708 0
87.8282 0.471144 0
88.0141 0.603574 0
87.5511 0.140171 0
88.0605 0.640504 0
88.1117 0.623254 0
87.9294 0.122083 0
88.2797 0.72072 0
88.3202 0.69011 0
88.4201 0.599845 0
88.1799 0.261405 0
88.1337 0.294487 0
88.3107 0.669631 0
88.0196 0.188253 0
88.5023 0.802968 0
88.5684 0.757227 0
88.5818 0.702286 0
88.2981 0.105197 0
88.7758 0.827415 0
88.7994 0.847559 0
88.633 0.473198 0
88.9264 0.66769 0
88.6618 0.383343 0
88.8689 0.813621 0
88.5313 0.241995 0
89.0508 0.949816 0
89.0823 0.917044 0
88.5884 0.196571 0
89.1747 0.846947 0
89.3815 0.975435 0
89.2811 0.954153 0
89.1818 0.221216 0
89.6212 1.01939 0
89.6722 1.09057 0
89.1085 0.657121 0
89.5692 0.806626 0
89.1914 0.399647 0
89.8963 1.14585 0
89.4097 0.123986 0
89.971 1.11061 0
89.9695 1.04967 0
89.2007 0.0988519 0
89.9005 0.950579 0
90.3318 1.11827 0
90.4356 1.12532 0
89.8637 0.283308 0
90.5196 1.09428 0
90.5733 1.16762 0
89.8221 0.715051 0
90.5913 0.761905 0
90.0447 0.272866 0
90.7566 1.15978 0
90.0792 0.100048 0
90.9185 1.07584 0
91.016 1.05551 0
89.8864 0.0732678 0
90.827 0.872293 0
91.3287 0.970902 0
91.5008 0.901314 0
90.3695 0.1735 0
91.328 0.843826 0
91.6476 0.843283 0
90.9276 0.738575 0
91.4278 0.406796 0
90.4666 0.105991 0
91.4035 0.756286 0
90.4883 0.0380146 0
91.9043 0.726074 0
91.9944 0.573916 0
90.3744 0.0396492 0
91.6886 0.262096 0
92.1496 0.277506 0
92.3403 0.137364 0
90.5031 -0.104985 0
92.4292 -0.0745971 0
92.4761 -0.211504 0
90.6547 -0.28702 0
92.4897 -0.246705 0
91.6754 -0.681152 0
90.9305 -0.109931 0
90.7309 -0.00971041 0
92.6233 -0.54546 0
92.3786 -0.936885 0
92.8089 -1.12392 0
90.3935 -0.00754332 0
92.0804 -1.38301 0
92.8019 -1.86302 0
90.3526 -0.130274 0
91.915 -1.34847 0
92.7712 -2.40323 0
91.3483 -1.80926 0
90.3298 -0.676326 0
92.5768 -2.75082 0
92.4325 -3.04191 0
91.3121 -1.15326 0
90.7424 -3.18567 0
88.7143 -2.61485 0
92.0758 -3.06953 0
89.1329 -0.415158 0
92.0504 -4.02482 0
89.4761 7.29919 0
90.2056 6.53268 0
84.8425 1.92645 0
89.3724 7.25313 0
87.1463 6.63009 0
88.7135 7.88144 0
85.431 0.757704 0
87.7376 8.07913 0
86.5725 7.94632 0
84.1887 0.961431 0
86.6436 8.47316 0
91.959 -4.43881 0
89.3752 -0.255994 0
91.6902 -4.78273 0
90.4554 -5.16978 0
89.9039 -4.45221 0
88.4851 -0.270692 0
90.6915 -5.76142 0
85.3523 7.73526 0
90.0364 -7.02933 0
88.2321 -1.40922 0
89.7142 -6.79418 0
88.852 -7.75185 0
83.0417 2.3612 0
88.4168 -7.60428 0
89.6373 -4.26132 0
88.908 -6.89403 0
87.0589 -5.09994 0
86.1306 -0.840956 0
87.9747 -6.99621 0
87.185 -7.40046 0
84.7297 8.16138 0
87.2557 -7.41459 0
86.9628 -0.456724 0
86.2307 -7.75916 0
85.7181 -8.46285 0
85.4529 -0.56499 0
84.6349 -8.60146 0
85.1439 -6.31644 0
83.2977 -0.653926 0
83.6261 -8.75038 0
83.7094 -4.85312 0
85.4127 -3.8291 0
84.1724 -7.49402 0
83.0695 -7.83947 0
85.7249 4.39206 0
82.1457 0.528846 0
85.1385 2.93632 0
83.8038 -0.0747704 0
82.5237 -8.50263 0
84.3563 7.72815 0
81.8763 0.383738 0
83.792 6.57296 0
81.6649 -8.36485 0
83.3771 -1.71212 0
80.9716 -6.10442 0
83.778 8.8071 0
80.7757 2.01802 0
83.6776 8.73106 0
81.4831 7.27505 0
81.0621 0.410887 0
82.1046 7.65269 0
81.5731 -6.35403 0
82.894 -0.472057 0
80.8178 -8.49171 0
80.8373 -8.25816 0
82.4745 8.21967 0
80.5688 7.83193 0
80.3831 0.0421142 0
81.6191 8.08789 0
79.7927 5.06299 0
80.3779 2.27918 0
79.902 -8.43804 0
80.845 -1.09363 0
80.2344 -8.31328 0
79.4436 8.28133 0
79.2847 -7.70844 0
79.99 -1.07376 0
79.6105 -3.38655 0
78.0341 -7.40198 0
81.0561 -4.09476 0
77.8956 -7.15889 0
79.501 -0.290017 0
76.9868 -6.83871 0
79.163 2.8554 0
79.7663 0.45998 0
79.0246 6.95301 0
79.1738 0.117238 0
78.8154 8.15834 0
78.5352 7.65487 0
78.8656 0.18556 0
77.7852 6.69866 0
78.6545 0.133256 0
78.3706 -6.39875 0
79.4985 -0.573906 0
79.5906 6.02593 0
77.8661 0.730479 0
77.3424 6.28938 0
76.8742 -6.79904 0
79.6109 -0.228831 0
75.2563 -5.81345 0
77.8611 -0.438767 0
76.0767 -5.7216 0
78.45 2.54116 0
77.8527 0.120655 0
79.0935 -5.20704 0
77.8541 -0.112599 0
75.3837 -5.38601 0
76.7573 5.67432 0
76.793 -4.24963 0
77.8637 -0.240302 0
75.6933 -4.61306 0
77.8062 3.13217 0
75.669 1.98722 0
76.266 4.90631 0
77.5873 -0.978669 0
75.5338 -5.11186 0
77.7987 0.400775 0
76.1749 6.6212 0
77.5937 -2.36833 0
77.8551 -0.083852 0
75.2075 -4.6117 0
75.9093 5.91527 0
77.8028 0.712931 0
75.8747 4.62281 0
75.5949 4.56229 0
77.7911 0.380204 0
74.804 4.06365 0
74.3532 -4.14104 0
77.8275 -0.293167 0
74.0529 -4.13406 0
76.4538 -1.9679 0
77.8454 -0.199308 0
73.4337 -2.8174 0
74.8585 5.05546 0
77.723 0.616266 0
76.1179 3.23854 0
74.0463 -2.55824 0
77.7284 -0.310885 0
73.397 -2.33061 0
73.7503 3.71972 0
77.7369 0.262997 0
74.1527 3.5038 0
74.455 2.85829 0
77.8522 0.0341153 0
73.6191 3.04488 0
74.7492 -1.50592 0
77.6621 -0.536311 0
74.0357 -1.32744 0
72.8561 -0.844569 0
76.9675 -0.91887 0
72.9067 -0.715191 0
76.6651 0.956406 0
77.7763 0.0791619 0
75.7348 2.4245 0
73.4007 2.45244 0
77.6286 0.0589141 0
72.9783 1.54948 0
77.3306 -0.233516 0
77.8346 -0.112419 0
72.9052 -0.23455 0
73.4318 -0.0914308 0
77.7979 -0.0655596 0
75.6637 0.306955 0
73.5995 0.525355 0
77.8151 -0.0616191 0
76.9783 -5.63579 0
77.8901 -0.429626 0
77.8378 0.133417 0
77.7959 6.85946 0
78.7284 -7.71325 0
81.7845 -0.941869 0
80.2167 0.993657 0
81.3814 8.59193 0
77.7791 0.278892 0
74.3082 4.83726 0
73.7962 -2.82559 0
77.7984 -0.202096 0
77.8365 -0.570295 0
77.3782 -3.65461 0
77.8879 0.79671 0
77.896 0.197554 0
77.787 -0.000141631 0
73.4729 2.047 0
79.1316 0.464565 0
78.2573 1.56872 0
78.572 -1.36833 0
80.0354 -0.688328 0
85.5415 -1.27103 0
85.1095 -8.44893 0
86.995 8.07154 0
85.0793 0.468916 0
77.6309 1.65649 0
79.3617 7.97551 0
78.3042 -7.05668 0
79.067 -2.30696 0
76.7715 -1.45377 0
74.4361 -0.218589 0
75.9475 5.80953 0
77.9435 1.88236 0
77.7863 -1.78177 0
74.5787 -4.61681 0
91.4383 -5.41669 0
88.1671 -0.664672 0
87.7428 0.795947 0
91.8861 4.5243 0
77.8827 -0.809841 0
77.869 -0.0435162 0
77.8537 0.148069 0
78.7963 0.75339 0
82.8368 0.735162 0
82.4648 4.09748 0
80.9571 -1.9838 0
84.018 -1.74325 0
81.3909 4.88492 0
84.2905 8.2916 0
83.124 -8.66573 0
82.2802 -1.9155 0
86.308 1.61258 0
87.3848 5.033 0
85.9538 -2.7923 0
87.1052 -0.0428899 0
90.2983 -0.25876 0
92.7684 -1.37229 0
92.6134 0.56917 0
89.4893 0.0287347 0
90.4592 0.0011861 0
92.0373 0.551454 0
91.8068 -0.540467 0
90.6155 0.043543 0
78.8519 -1.44155 0
78.3365 -0.570765 0
78.2429 1.2315 0
79.0182 0.94579 0
78.095 1.21883 0
77.8629 0.237974 0
77.8513 -0.107289 0
78.0302 -1.11904 0
89.1761 0.963179 0
90.4105 1.90913 0
89.4981 -1.16041 0
89.7096 -0.173678 0
75.7987 -0.956072 0
77.8155 -0.154562 0
77.3768 -0.43749 0
77.8262 -0.371014 0
77.8329 0.205677 0
77.7872 0.962482 0
91.0967 0.996112 0
90.2269 0.156427 0
90.4026 -0.00289602 0
90.8003 -1.08631 0
81.4169 -0.0410489 0
80.6634 -2.81683 0
81.7115 1.80062 0
80.4391 0.447293 0
77.6235 4.03054 0
77.0825 7.29458 0
76.843 -6.23869 0
78.1045 -3.2143 0
78.6143 -2.10246 0
77.3742 -2.22206 0
77.7042 4.62386 0
78.0559 2.21801 0
90.6224 0.0563751 0
90.3562 0.146866 0
90.5371 -0.0533565 0
91.5271 0.0740043 0
79.5041 -5.4071 0
80.5781 -5.24608 0
80.1778 4.62792 0
80.6833 8.51125 0
78.8677 -3.96709 0
80.0331 -2.30782 0
79.8649 3.10972 0
79.0719 1.53095 0
90.2552 1.19243 0
89.6718 0.144641 0
89.9451 -0.00966803 0
89.783 -1.07212 0
77.1842 1.0088 0
77.8281 0.0306615 0
90.4718 -0.0553178 0
91.1362 -0.345194 0
90.8392 0.242827 0
90.2888 0.0381198 0
78.671 -0.951634 0
78.2175 -1.32455 0
78.9556 1.73598 0
78.1229 0.732197 0
77.8746 -0.146057 0
78.0581 -0.692686 0
77.9127 0.313496 0
77.8509 0.136092 0
73.9116 1.70826 0
76.8029 1.5191 0
86.7092 -3.15639 0
90.0316 -6.37596 0
90.9917 5.83568 0
86.4216 2.28012 0
76.6287 -2.30166 0
74.5414 -2.88815 0
88.8831 0.161791 0
89.1616 0.9163 0
88.0382 0.075712 0
88.7354 0.867264 0
89.1747 -0.891036 0
89.037 -0.144108 0
88.4476 -0.716962 0
88.4072 -0.0119715 0
90.1233 -0.219216 0
90.227 -0.635538 0
90.0738 0.400332 0
89.8154 0.00632087 0
77.8325 0.179485 0
77.6031 0.53479 0
76.3013 0.452196 0
74.0084 0.843564 0
77.7403 -0.246504 0
77.82 -0.169904 0
77.2741 0.274884 0
77.1888 -0.744162 0
92.5738 -2.80526 0
89.4216 -1.76889 0
90.4025 2.25201 0
92.7479 1.67273 0
77.9628 -0.063891 0
78.0435 -0.364163 0
77.8705 0.0508205 0
78.2022 0.259185 0
89.4459 -0.21139 0
89.4487 -0.550468 0
89.4933 0.368742 0
89.0458 0.117554 0
87.791 0.164052 0
87.9944 0.532331 0
87.9977 -0.618338 0
87.9102 -0.150796 0
78.3417 -0.894015 0
79.1933 -2.12518 0
78.6605 1.60669 0
78.3143 1.26756 0
78.9528 2.87107 0
77.4333 1.84306 0
77.9758 -1.91422 0
78.5916 -2.78148 0
90.986 -0.558404 0
91.9557 0.268029 0
92.1316 -0.258359 0
91.4099 0.603015 0
77.5802 -1.14006 0
77.6882 -1.35644 0
77.7298 1.07528 0
77.2041 1.29911 0
87.76 0.54183 0
87.4249 0.160642 0
87.5051 -0.100573 0
87.6835 -0.460317 0
84.8289 4.26422 0
86.8119 7.12843 0
86.3019 -8.39121 0
85.8659 -3.34629 0
75.0155 -3.40945 0
77.3475 -3.50062 0
84.4561 -3.0589 0
85.0945 -1.09735 0
83.4684 0.452288 0
86.7543 3.11455 0
74.5966 4.60774 0
76.5386 2.72236 0
88.7005 -0.0519136 0
88.8707 -0.560842 0
88.7518 0.373588 0
88.6559 0.103535 0
88.6051 -0.3729 0
88.3809 -1.5246 0
88.9342 2.10544 0
87.9597 0.273799 0
82.8462 1.39312 0
81.1367 0.349435 0
82.237 -0.334656 0
82.8797 -3.10517 0
90.796 0.317688 0
91.0834 0.859417 0
91.2472 -0.935532 0
91.1453 -0.0389002 0
81.8858 -3.82147 0
82.9697 -1.83386 0
82.1986 2.70414 0
84.7103 5.97904 0
87.2448 0.32129 0
87.1079 0.0604921 0
87.3463 -0.0987043 0
87.2094 -0.335008 0
88.0439 -0.188157 0
88.2626 -0.00682554 0
88.2269 0.1035 0
87.9809 0.435547 0
79.7183 0.494952 0
79.4823 1.29821 0
79.7307 -1.14376 0
80.5512 -0.316307 0
81.1955 2.81755 0
79.6289 1.94268 0
79.0151 -2.82459 0
78.2113 -2.84889 0
90.3374 -0.495071 0
90.0831 -0.284754 0
89.9032 0.383379 0
90.8458 0.648417 0
79.5979 3.83363 0
80.1077 2.55995 0
79.1172 -0.820992 0
78.9583 -0.291435 0
78.8088 0.2643 0
79.4866 0.886256 0
76.4207 -0.869309 0
77.4134 -1.33911 0
91.9337 -3.69992 0
89.4709 -2.08786 0
88.925 3.77248 0
92.3228 3.76609 0
77.8196 -0.860136 0
77.872 -0.14069 0
77.8065 0.199711 0
77.8931 0.838629 0
78.1402 0.0871601 0
78.1557 0.620544 0
78.2958 -0.342542 0
78.4306 -0.0205034 0
75.2579 -0.266028 0
72.9214 0.151661 0
84.8342 3.22026 0
88.884 2.99387 0
87.5808 -2.52257 0
88.174 -4.98552 0
77.4373 2.05685 0
77.0147 1.14497 0
77.8534 -0.0246919 0
77.6 -0.0482866 0
80.1148 6.81237 0
78.0821 4.04121 0
79.7858 -4.2836 0
78.7788 -8.07577 0
77.2769 0.782149 0
77.7278 0.422584 0
90.1077 0.533034 0
90.4679 1.16685 0
90.132 -1.06931 0
90.0965 -0.205249 0
87.5304 -0.121443 0
87.8122 -0.0824626 0
87.7764 0.0700506 0
87.6011 0.398602 0
92.5149 0.479384 0
91.3457 1.41595 0
91.4058 -0.585736 0
92.6433 -0.745373 0