# vtk DataFile Version 3.0
Unstructured Grid for Triangles
ASCII
DATASET UNSTRUCTURED_GRID
POINTS 29612 DOUBLE
-2.72397e-05 1.23686e-06 0
-2.95789e-05 9.5838e-07 0
-2.77865e-05 -3.1235e-07 0
0.0002024 5e-05 0
0.000203975 4.9875e-05 0
0.000205 5e-05 0
0.000203975 -4.9875e-05 0
0.0002024 -5e-05 0
0.000205 -5e-05 0
0.00020295 4.975e-05 0
0.00020295 -4.975e-05 0
0.000201925 4.9625e-05 0
0.000201925 -4.9625e-05 0
-5.29747e-05 -4.79887e-05 0
-5.5e-05 -5e-05 0
-5.24e-05 -5e-05 0
-5.05983e-05 -4.84325e-05 0
-4.98e-05 -5e-05 0
-4.72e-05 -5e-05 0
-4.83864e-05 -4.87761e-05 0
-4.46e-05 -5e-05 0
-4.59e-05 -4.84239e-05 0
-4.29453e-05 -4.24878e-05 0
-4.47486e-05 -4.20717e-05 0
-4.41829e-05 -4.36609e-05 0
-5.12578e-05 -4.62101e-05 0
-4.93077e-05 -4.53594e-05 0
-5.0706e-05 -4.39006e-05 0
-4.19243e-05 -4.77545e-05 0
-4.40307e-05 -4.71837e-05 0
-4.3691e-05 -4.86724e-05 0
-5.16129e-05 -4.20948e-05 0
-4.95355e-05 -4.15432e-05 0
-5.11646e-05 -4.0128e-05 0
-3.94697e-05 -4.81197e-05 0
-4.06302e-05 -4.55143e-05 0
-5.37257e-05 -3.88197e-05 0
-5.31099e-05 -4.07297e-05 0
-5.23982e-05 -3.88328e-05 0
-3.70063e-05 -4.72956e-05 0
-3.68e-05 -5e-05 0
-3.5308e-05 -4.85302e-05 0
-5.072e-05 -3.7867e-05 0
-4.85506e-05 -3.83975e-05 0
-4.90949e-05 -3.59622e-05 0
-3.37127e-05 -4.84331e-05 0
-3.16e-05 -5e-05 0
-3.26495e-05 -4.7415e-05 0
-5.5e-05 -3.5e-05 0
-5.31201e-05 -3.70361e-05 0
-5.28367e-05 -3.46817e-05 0
-3.63898e-05 -4.48809e-05 0
-3.83315e-05 -4.60336e-05 0
-3.26269e-06 -4.15503e-05 0
-5.99662e-06 -4.09556e-05 0
-5.46944e-06 -4.29488e-05 0
-5.29747e-05 4.79887e-05 0
-5.5e-05 5e-05 0
-5.5e-05 4.75e-05 0
-5.5e-05 4.5e-05 0
-5.34834e-05 4.29171e-05 0
-5.26943e-05 4.42611e-05 0
-5.34026e-05 4.60176e-05 0
-5.31099e-05 4.07297e-05 0
-5.11672e-05 4.01178e-05 0
-5.16129e-05 4.20948e-05 0
-5.24e-05 5e-05 0
-5.05983e-05 4.84325e-05 0
-5.31201e-05 3.70361e-05 0
-5.072e-05 3.7867e-05 0
-5.23982e-05 3.88328e-05 0
-4.8341e-05 4.69132e-05 0
-4.83679e-05 4.87539e-05 0
-5.28367e-05 3.46817e-05 0
-5.5e-05 3.25e-05 0
-5.25657e-05 3.28474e-05 0
-4.98e-05 5e-05 0
-5.30382e-05 3.125e-05 0
-4.19243e-05 4.77545e-05 0
-4.40015e-05 4.7335e-05 0
-4.25917e-05 4.63678e-05 0
-4.35138e-05 2.62661e-05 0
-4.14982e-05 2.74462e-05 0
-4.35654e-05 2.85217e-05 0
-4.59e-05 4.84239e-05 0
-4.36852e-05 4.87027e-05 0
-4.46e-05 5e-05 0
-5.33308e-05 2.92503e-05 0
-5.5e-05 2.75e-05 0
-5.23377e-05 2.76953e-05 0
-4.25282e-05 4.46352e-05 0
-4.09368e-05 4.35728e-05 0
-4.06302e-05 4.55143e-05 0
0.0002009 4.95e-05 0
0.0001998 5e-05 0
0.000199875 4.9375e-05 0
0.00019885 4.925e-05 0
0.0001972 5e-05 0
0.000197825 4.9125e-05 0
0.0001968 4.9e-05 0
0.000195775 4.8875e-05 0
0.0001946 5e-05 0
0.00019475 4.875e-05 0
0.000193725 4.8625e-05 0
0.000192 5e-05 0
0.0001927 4.85e-05 0
0.000191675 4.8375e-05 0
0.00019065 4.825e-05 0
0.0001894 5e-05 0
0.000189625 4.8125e-05 0
0.0001886 4.8e-05 0
0.0001868 5e-05 0
0.000187575 4.7875e-05 0
0.00018655 4.775e-05 0
0.000185515 4.8575e-05 0
0.0001842 5e-05 0
0.0001845 4.75e-05 0
0.000185525 4.7625e-05 0
0.000182564 4.829e-05 0
0.0001816 5e-05 0
0.00018245 4.725e-05 0
0.000183475 4.7375e-05 0
0.000181425 4.7125e-05 0
0.000180295 4.82657e-05 0
0.000179 5e-05 0
0.000179375 4.6875e-05 0
0.0001804 4.7e-05 0
0.000178168 4.80619e-05 0
0.0001764 5e-05 0
0.000177325 4.6625e-05 0
0.00017835 4.675e-05 0
0.000176428 4.76631e-05 0
0.0001763 4.65e-05 0
0.0001738 5e-05 0
0.0001751 4.84164e-05 0
0.000175275 4.6375e-05 0
0.000174025 4.75632e-05 0
0.0001712 5e-05 0
0.000172615 4.78449e-05 0
0.0001722 4.6e-05 0
0.000173225 4.6125e-05 0
0.00017015 4.575e-05 0
0.000171243 4.7381e-05 0
0.000169554 4.79999e-05 0
0.0001686 5e-05 0
0.000167507 4.79751e-05 0
0.000168498 4.64861e-05 0
0.000166 5e-05 0
0.00016558 4.71459e-05 0
0.000167135 4.62887e-05 0
0.0001681 4.55e-05 0
0.00016605 4.525e-05 0
0.000167075 4.5375e-05 0
0.000164059 4.61599e-05 0
0.00016394 4.79552e-05 0
0.000162881 4.6615e-05 0
0.000162975 4.4875e-05 0
0.000165025 4.5125e-05 0
0.000164 4.5e-05 0
0.000161754 4.58641e-05 0
0.000161722 4.78101e-05 0
0.000159956 4.58294e-05 0
0.000160925 4.4625e-05 0
0.00016195 4.475e-05 0
0.000157667 4.60322e-05 0
0.000158875 4.4375e-05 0
0.000159194 4.80155e-05 0
0.0001599 4.45e-05 0
0.00015785 4.425e-05 0
0.000155808 4.56757e-05 0
0.000155647 4.76701e-05 0
0.000154059 4.66642e-05 0
0.000153756 4.50083e-05 0
0.000154839 4.50446e-05 0
0.000156825 4.4125e-05 0
0.000151954 4.80508e-05 0
0.000154052 4.8477e-05 0
0.000153 5e-05 0
0.000154775 4.3875e-05 0
0.000152142 4.56625e-05 0
0.000152821 4.45753e-05 0
0.00015375 4.375e-05 0
0.0001504 5e-05 0
0.000149644 4.85168e-05 0
0.000151787 4.43178e-05 0
0.000152725 4.3625e-05 0
0.000150675 4.3375e-05 0
0.0001517 4.35e-05 0
0.000148119 4.50887e-05 0
0.000148072 4.75757e-05 0
0.000146584 4.63516e-05 0
0.000150008 4.6396e-05 0
0.000149351 4.4543e-05 0
0.00015061 4.46252e-05 0
0.0001476 4.3e-05 0
0.000148625 4.3125e-05 0
0.000146492 4.82975e-05 0
0.000144888 4.73562e-05 0
0.000146676 4.44259e-05 0
0.000145255 4.53656e-05 0
0.000145652 4.38669e-05 0
0.000141401 4.79821e-05 0
0.0001426 5e-05 0
0.00014 5e-05 0
0.000144374 4.38862e-05 0
0.00014555 4.275e-05 0
0.0001435 4.25e-05 0
0.000144525 4.2625e-05 0
0.000142746 4.38121e-05 0
0.000141288 4.43191e-05 0
0.000141707 4.32778e-05 0
0.00013921 4.38992e-05 0
0.000140355 4.5932e-05 0
0.000138302 4.5922e-05 0
0.000142912 4.58869e-05 0
0.000140592 4.30037e-05 0
0.00014145 4.225e-05 0
0.000136458 4.5869e-05 0
0.000137106 4.4063e-05 0
0.0001394 4.2e-05 0
0.000138259 4.28915e-05 0
0.000137484 4.77094e-05 0
0.000139166 4.78902e-05 0
0.00013586 4.78984e-05 0
0.000133449 4.78649e-05 0
0.000134717 4.61848e-05 0
0.000137256 4.25134e-05 0
0.000135323 4.24541e-05 0
0.000136325 4.1625e-05 0
0.000136122 4.2876e-05 0
0.000131206 4.47284e-05 0
0.000133168 4.56738e-05 0
0.000131773 4.65243e-05 0
0.000134756 4.40343e-05 0
0.000132747 4.36463e-05 0
0.000133483 4.26786e-05 0
0.000131081 4.1867e-05 0
0.000132382 4.22815e-05 0
0.000131507 4.3122e-05 0
0.000131059 4.80123e-05 0
0.00013325 4.125e-05 0
0.00012915 4.075e-05 0
0.00012982 4.18199e-05 0
0.000128915 4.26216e-05 0
0.000126366 4.47574e-05 0
0.000127331 4.30908e-05 0
0.000128781 4.44872e-05 0
0.000125336 4.28376e-05 0
0.000130218 4.31077e-05 0
0.000127894 4.16344e-05 0
0.000124774 4.69608e-05 0
0.000127668 4.64148e-05 0
0.000126591 4.8331e-05 0
0.000126722 4.18415e-05 0
0.000125768 4.11931e-05 0
0.000124326 4.13546e-05 0
0.00012505 4.025e-05 0
0.000122408 4.50118e-05 0
0.000120276 4.47432e-05 0
0.00012139 4.32235e-05 0
0.000124336 4.44132e-05 0
0.000123056 4.27595e-05 0
0.000122977 4.09049e-05 0
0.00012185 4.69217e-05 0
0.000122676 4.85947e-05 0
0.000120525 4.86094e-05 0
0.000121479 4.13153e-05 0
0.000119547 4.24221e-05 0
0.000120249 4.07448e-05 0
0.000119925 3.9625e-05 0
0.000119346 4.06114e-05 0
0.000117479 4.47279e-05 0
0.000114726 4.45259e-05 0
0.00011571 4.27814e-05 0
0.000119443 4.66611e-05 0
0.000117447 4.21596e-05 0
0.000118421 4.0752e-05 0
0.000117409 4.04437e-05 0
0.000116775 4.70073e-05 0
0.0001179 4.855e-05 0
0.000115473 4.84802e-05 0
0.00011685 3.925e-05 0
0.000117875 3.9375e-05 0
0.000115454 4.00551e-05 0
0.0001148 3.9e-05 0
0.000115825 3.9125e-05 0
0.000111704 4.23398e-05 0
0.000113786 4.26731e-05 0
0.000112589 4.43871e-05 0
0.000113234 4.06671e-05 0
0.000114754 4.13371e-05 0
0.0001106 4.42326e-05 0
0.000109703 4.24261e-05 0
0.00011275 3.875e-05 0
0.000113775 3.8875e-05 0
0.000110211 4.80875e-05 0
0.000108244 4.71951e-05 0
0.000109312 4.58413e-05 0
0.000111755 3.99116e-05 0
0.00010944 3.92972e-05 0
0.000110415 4.05876e-05 0
0.000108839 4.07536e-05 0
0.000106472 4.76905e-05 0
0.000107274 4.57868e-05 0
0.000108011 3.92415e-05 0
0.000106885 4.04365e-05 0
0.000106625 3.88708e-05 0
0.000105286 4.19254e-05 0
0.000105055 3.95469e-05 0
0.000104215 4.39764e-05 0
0.000106346 4.40629e-05 0
0.000100945 4.51249e-05 0
0.000102825 4.5614e-05 0
0.000101189 4.68452e-05 0
0.000107625 3.8125e-05 0
0.000105575 3.7875e-05 0
0.0001066 3.8e-05 0
0.000103352 4.76905e-05 0
0.000101803 4.8465e-05 0
0.000103685 3.89398e-05 0
0.00010245 3.8825e-05 0
0.000103525 3.7625e-05 0
0.000101092 3.99779e-05 0
0.000101267 3.82619e-05 0
0.000101382 4.2025e-05 0
0.000103187 4.05286e-05 0
0.000103359 4.24605e-05 0
9.87383e-05 4.5447e-05 0
9.99411e-05 4.35161e-05 0
9.744e-05 4.33145e-05 0
0.00010045 3.725e-05 0
0.000101475 3.7375e-05 0
9.70845e-05 4.65215e-05 0
9.52614e-05 4.67664e-05 0
9.61768e-05 4.49944e-05 0
9.9729e-05 3.87704e-05 0
9.78901e-05 3.9598e-05 0
9.85823e-05 3.81492e-05 0
9.62289e-05 3.93709e-05 0
9.74259e-05 3.81279e-05 0
9.7375e-05 3.6875e-05 0
9.63045e-05 3.76631e-05 0
9.58e-05 5e-05 0
9.32e-05 5e-05 0
9.47542e-05 4.8457e-05 0
9.49675e-05 3.85246e-05 0
9.36214e-05 3.89472e-05 0
9.40006e-05 3.74906e-05 0
9.66411e-05 4.12573e-05 0
9.44241e-05 4.07079e-05 0
9.03569e-05 4.24993e-05 0
9.21701e-05 4.02409e-05 0
9.27439e-05 4.27744e-05 0
8.89795e-05 4.09067e-05 0
9.03071e-05 4.0248e-05 0
9.25447e-05 3.77721e-05 0
9.3275e-05 3.6375e-05 0
9.07708e-05 3.87127e-05 0
9.11303e-05 3.70839e-05 0
9.11933e-05 4.55145e-05 0
9.30678e-05 4.73279e-05 0
9.11886e-05 4.82603e-05 0
8.87724e-05 3.88076e-05 0
8.99595e-05 3.75116e-05 0
9.02e-05 3.6e-05 0
8.89241e-05 3.6954e-05 0
8.36977e-05 4.59472e-05 0
8.36223e-05 4.83578e-05 0
8.20467e-05 4.74142e-05 0
8.71227e-05 4.03557e-05 0
8.61e-05 3.55e-05 0
8.68368e-05 3.65714e-05 0
8.5484e-05 3.6588e-05 0
8.47735e-05 4.02845e-05 0
8.23121e-05 4.21599e-05 0
8.26582e-05 3.98147e-05 0
8.46943e-05 4.2454e-05 0
8.38832e-05 3.78613e-05 0
8.35569e-05 3.63808e-05 0
8.44098e-05 3.6291e-05 0
8.5075e-05 3.5375e-05 0
8.51465e-05 4.77163e-05 0
8.3025e-05 3.5125e-05 0
8.22824e-05 3.68659e-05 0
8.1446e-05 3.57362e-05 0
8.05884e-05 3.71794e-05 0
7.53471e-05 4.77524e-05 0
7.38313e-05 4.73927e-05 0
7.39102e-05 4.61526e-05 0
7.9826e-05 3.58588e-05 0
7.88607e-05 3.76287e-05 0
7.81733e-05 3.57987e-05 0
8.16783e-05 3.84471e-05 0
8.07975e-05 4.04095e-05 0
7.52138e-05 4.04775e-05 0
7.67682e-05 4.17043e-05 0
7.49617e-05 4.21803e-05 0
7.52903e-05 3.84008e-05 0
7.38293e-05 3.93136e-05 0
[...]
CELL_DATA 58684
VECTORS velocity DOUBLE
74.1907 0.337451 0
86.6221 0.000107055 0
86.5984 8.96198e-05 0
86.6247 0.00156208 0
86.5992 -0.00236969 0
86.6302 -0.00267181 0
86.6054 0.00327886 0
77.8751 -0.00184327 0
77.8879 -0.0242392 0
77.9893 -0.0029869 0
78.0991 -0.00555326 0
78.1595 -0.409444 0
77.9192 -0.109774 0
78.2387 -0.135048 0
77.8991 -0.185433 0
78.4334 -0.170755 0
77.8757 -0.112548 0
78.7886 -0.157622 0
77.9465 -0.318184 0
79.293 -0.112086 0
77.8887 -0.115344 0
78.7584 -0.369368 0
85.2964 -2.16191 0
77.8603 0.0121524 0
77.8621 0.0513045 0
77.8598 0.0250153 0
77.8967 0.141991 0
77.8875 0.0231694 0
77.8924 0.189121 0
77.9867 0.0493088 0
77.8855 0.145493 0
77.9438 0.0330462 0
77.8479 0.144528 0
78.3078 0.163091 0
78.0201 1.13383 0
78.1655 0.0687252 0
77.8974 0.178674 0
78.3842 0.354766 0
86.6302 -0.00355994 0
86.6332 3.72429e-06 0
86.6408 -0.00270476 0
86.6409 -0.00537341 0
86.6425 0.000367604 0
86.65 -0.00238737 0
86.6515 -0.00657019 0
86.6513 -0.00581386 0
86.6538 -0.000162155 0
86.6604 -0.00583605 0
86.66 -0.00695035 0
86.6602 0.000368568 0
86.6689 -0.00594674 0
86.669 -0.00884708 0
86.6692 -0.00694286 0
86.6706 -0.000399953 0
86.6765 -0.00778057 0
86.6762 -0.00757443 0
86.676 0.000118124 0
86.6854 -0.00986069 0
86.685 -0.0112489 0
86.6858 -0.00710852 0
86.6884 -0.000146541 0
86.6937 -0.0146511 0
86.6951 -0.00971393 0
86.7021 -0.00118487 0
86.7056 -0.0157895 0
86.705 -0.0160702 0
86.7081 -0.0104929 0
86.7118 -0.000603839 0
86.7147 -0.0178188 0
86.7182 -0.0111715 0
86.7208 -5.85898e-05 0
86.7264 -0.0199822 0
86.7302 -0.0151344 0
86.737 -0.0227012 0
86.7361 -0.000364279 0
86.7424 -0.0169916 0
86.7453 -0.0105554 0
86.7505 -0.000993996 0
86.7563 -0.0247042 0
86.7701 -0.0181179 0
86.7586 -0.0203006 0
86.7697 -0.00166511 0
86.7766 -0.0134449 0
86.7726 -0.0246748 0
86.7953 -0.0168615 0
86.7898 -0.0219216 0
86.7913 -0.0287013 0
86.8008 -0.0366088 0
86.8163 -0.0228679 0
86.8302 -0.0317049 0
86.8097 -0.0280125 0
86.8239 -0.0409824 0
86.8364 -0.0322415 0
86.8359 -0.0306959 0
86.8437 -0.042957 0
86.8703 -0.0377269 0
86.8525 -0.0348034 0
86.8635 -0.0463404 0
86.8814 -0.0522451 0
86.8829 -0.038516 0
86.9085 -0.0492239 0
86.8876 -0.0424978 0
86.9101 -0.0167056 0
86.9142 -0.0529518 0
86.9328 -0.0490269 0
86.9258 -0.0556764 0
86.9332 -0.0142246 0
86.9399 -0.0587456 0
86.9559 -0.0667873 0
86.9719 -0.0374338 0
86.9681 -0.0397295 0
86.9535 -0.0547135 0
86.9878 -0.0715449 0
86.9859 -0.0300584 0
87.0191 -0.0640913 0
87.0036 -0.0415992 0
87.0388 -0.00179095 0
87.0272 -0.0719374 0
87.0428 -0.0858101 0
87.0768 -0.0736419 0
87.0961 -0.0570533 0
87.0493 -0.0452813 0
87.086 -0.0848876 0
87.1234 -0.0574754 0
87.1183 -0.0896735 0
87.0938 -0.0334619 0
87.1305 -0.0800367 0
87.1476 -0.0290918 0
87.1461 -0.0941442 0
87.1757 -0.109176 0
87.2121 -0.0653015 0
87.2036 -0.0906158 0
87.1756 -0.0418761 0
87.2457 -0.117653 0
87.1881 -0.0328948 0
87.2231 -0.116921 0
87.2928 -0.129458 0
87.308 -0.0906593 0
87.3255 -0.114256 0
87.2818 -0.10886 0
87.3097 -0.118133 0
87.2748 -0.0530609 0
87.3561 -0.136255 0
87.3836 -0.149095 0
87.4193 -0.0984032 0
87.3358 -0.0738778 0
87.377 -0.128025 0
87.4004 -0.152272 0
87.3618 -0.0298898 0
87.4742 -0.160458 0
87.4889 -0.179452 0
87.5317 -0.109394 0
87.4385 -0.099388 0
87.5026 -0.150924 0
87.5257 -0.178453 0
87.4631 -0.0312819 0
87.5454 -0.206726 0
87.598 -0.22102 0
87.6125 -0.156426 0
87.6079 -0.18025 0
87.6622 -0.164416 0
87.6408 -0.228116 0
87.6423 -0.0600167 0
87.6517 -0.21397 0
87.7279 -0.217103 0
87.7 -0.0698969 0
87.7972 -0.257432 0
87.8245 -0.237489 0
87.8042 -0.149661 0
87.8696 -0.115473 0
87.8023 -0.262811 0
87.8419 -0.290305 0
87.8395 -0.059384 0
87.9156 -0.290944 0
87.9664 -0.299525 0
87.8828 -0.215116 0
87.9486 -0.133299 0
87.9869 -0.179623 0
87.9997 -0.342821 0
88.0355 -0.115458 0
88.0647 -0.317968 0
88.0969 -0.31184 0
88.1238 -0.364859 0
88.0685 -0.00390474 0
88.225 -0.363243 0
88.1054 -0.280637 0
88.2282 -0.252809 0
88.3002 -0.295834 0
88.2749 -0.401406 0
88.3313 -0.405868 0
88.1891 -0.091098 0
88.3678 -0.392694 0
88.3976 -0.453647 0
88.4102 -0.436993 0
88.4976 -0.100424 0
88.3921 -0.346451 0
88.5668 -0.500991 0
88.6118 -0.379872 0
88.5311 -0.319309 0
88.6253 -0.529766 0
88.6115 -0.52349 0
88.4868 -0.0900332 0
88.7139 -0.580833 0
88.7503 -0.544849 0
88.9198 -0.105425 0
88.8486 -0.598353 0
88.6929 -0.418405 0
88.9427 -0.380904 0
89.0076 -0.490905 0
88.9011 -0.542745 0
88.9292 -0.64719 0
88.9746 -0.232374 0
89.0984 -0.622316 0
89.0579 -0.719048 0
89.2454 -0.727715 0
89.1857 -0.0108083 0
89.1928 -0.600011 0
89.2581 -0.752682 0
89.0846 -0.186122 0
89.3214 -0.79163 0
89.4041 -0.454368 0
89.368 -0.828029 0
89.557 -0.252958 0
89.5302 -0.709751 0
89.5008 -0.837011 0
89.421 -0.129335 0
89.6424 -0.862875 0
89.8176 -0.83766 0
89.6586 -0.715575 0
89.6984 -0.429733 0
89.8545 -0.963021 0
89.8426 -0.37577 0
89.9904 -0.0640234 0
89.7908 -0.756059 0
89.9681 -0.950085 0
90.0571 -1.02179 0
90.0588 -0.31706 0
90.191 -0.877282 0
90.3479 -0.9592 0
90.1247 -0.107064 0
90.4901 -0.929252 0
90.4127 -1.04116 0
90.2603 -0.770541 0
90.3055 -0.369109 0
90.4188 -0.430295 0
90.5619 -1.04179 0
90.4546 -0.00614683 0
90.6682 -1.11082 0
90.7998 -1.04994 0
90.7576 -1.10726 0
90.692 -0.236178 0
90.8508 -0.897691 0
91.0987 -0.905104 0
90.6499 -0.0043106 0
91.1925 -1.07614 0
91.3573 -0.907831 0
91.0052 -0.660189 0
90.8166 -0.269549 0
91.3592 -1.02818 0
90.9798 -0.33396 0
90.7659 -0.013831 0
91.2763 -0.68506 0
91.6125 -0.92715 0
91.7722 -0.862244 0
90.9411 -0.0643059 0
91.7092 -0.578704 0
91.8559 -0.765934 0
90.7916 0.0365782 0
91.9907 -0.750079 0
92.1705 -0.619209 0
91.7854 -0.201725 0
90.5322 0.0102788 0
92.3189 -0.39511 0
91.4449 0.218153 0
91.6731 0.327155 0
92.1885 -0.247898 0
91.9652 0.00616819 0
92.6339 -0.0097854 0
90.6485 0.38051 0
92.6208 -0.110596 0
92.1648 0.448963 0
92.8078 0.5265 0
90.5692 0.110985 0
92.7542 1.22044 0
92.5243 1.44717 0
89.1755 0.198628 0
92.9794 0.916669 0
92.873 1.38845 0
90.5326 1.48433 0
90.2934 0.709667 0
91.8229 1.13107 0
92.7677 1.91659 0
89.4266 0.331438 0
92.2732 2.79871 0
92.9436 2.15514 0
92.956 2.38008 0
88.654 1.41397 0
91.298 2.92522 0
92.3228 3.18344 0
88.6395 0.23236 0
92.1385 3.68146 0
91.7886 3.56215 0
90.8212 5.17859 0
86.3445 0.396625 0
91.9538 4.87865 0
89.9718 3.52158 0
88.1085 1.56323 0
87.7171 2.97969 0
91.72 5.3816 0
90.5877 5.83069 0
86.7827 0.607833 0
90.6582 6.65274 0
86.6054 0.00334538 0
86.6078 9.16696e-06 0
86.6142 0.00200901 0
86.6138 0.00532309 0
86.615 -0.000408352 0
86.6223 0.00229046 0
86.6234 0.00640144 0
86.6233 0.00570462 0
86.6255 0.000135829 0
86.6314 0.00530426 0
86.6311 0.00581526 0
86.6308 -0.000406563 0
86.639 0.00576199 0
86.6388 0.0084721 0
86.6389 0.00665526 0
86.6401 0.000365306 0
86.6459 0.00782199 0
86.6455 0.0078005 0
86.6453 -0.000128231 0
86.6545 0.00934972 0
86.6542 0.010906 0
86.6624 0.0140953 0
86.655 0.00686634 0
86.6652 0.0077186 0
86.6722 0.0129223 0
86.664 0.00975933 0
86.6744 0.0155831 0
86.6774 0.0103136 0
86.6843 0.0166841 0
86.6755 0.00969115 0
86.6872 0.0114131 0
86.6959 0.0190841 0
86.6873 0.00972871 0
86.7065 0.0225595 0
86.7066 0.0229605 0
86.7104 0.0156936 0
86.6997 0.0112107 0
86.7118 0.0171363 0
86.723 0.0157817 0
86.7146 0.0107175 0
86.735 0.0296054 0
86.7304 0.0126307 0
86.7403 0.0183021 0
86.73 0.0150597 0
86.743 0.0248658 0
86.7622 0.0287933 0
86.7655 0.0171057 0
86.7574 0.0270561 0
86.7758 0.0301558 0
86.7773 0.0357248 0
86.7929 0.0169831 0
86.7872 0.02298 0
86.8012 0.0318368 0
86.8145 0.0452676 0
86.8159 0.0214632 0
86.8232 0.033668 0
86.8335 0.0479694 0
86.8406 0.0274819 0
86.823 0.0347946 0
86.8534 0.0527193 0
86.8537 0.0521754 0
86.8587 0.0325709 0
86.8695 0.0232053 0
86.8803 0.0490958 0
86.8275 0.0141437 0
86.8981 0.0559486 0
86.9287 0.0681865 0
86.9109 0.0574882 0
86.8948 0.0331676 0
86.9396 0.0693677 0
86.9467 0.0599318 0
86.9612 0.030284 0
86.9277 0.0558661 0
86.9683 0.0638948 0
86.9851 0.073198 0
86.9338 0.0171548 0
86.9729 0.0530545 0
87.019 0.085823 0
86.9813 0.0429813 0
87.0297 0.0732512 0
87.0612 0.0899327 0
87.0337 0.0661583 0
87.0535 0.0267865 0
87.0702 0.0797171 0
87.0889 0.0906684 0
87.0685 0.0224505 0
87.1146 0.100591 0
87.0765 0.0747639 0
87.1351 0.0816272 0
87.0942 0.0575213 0
87.1495 0.109574 0
87.2101 0.130996 0
87.165 0.0327799 0
87.1645 0.090073 0
87.2386 0.138461 0
87.2115 0.0999191 0
87.1531 0.0411631 0
87.2545 0.130202 0
87.2774 0.135656 0
87.2326 0.0336547 0
87.2778 0.0581161 0
87.3097 0.118212 0
87.3297 0.158013 0
87.2545 0.0839358 0
87.361 0.150258 0
87.384 0.16277 0
87.3835 0.0538796 0
87.3592 0.0981531 0
87.4335 0.1809 0
87.4272 0.153666 0
87.322 0.0504567 0
87.4528 0.172407 0
87.5034 0.183834 0
87.4748 0.0717239 0
87.4682 0.158398 0
87.5653 0.217934 0
87.5483 0.167659 0
87.4173 0.0546089 0
87.5892 0.203089 0
87.6595 0.246064 0
87.5357 0.0704579 0
87.6434 0.195387 0
87.6188 0.090701 0
87.6864 0.204327 0
87.5966 0.117133 0
87.7212 0.259165 0
87.779 0.257518 0
87.6771 0.0703774 0
87.7675 0.252337 0
87.8478 0.290094 0
87.7966 0.0738297 0
87.7355 0.213443 0
87.8348 0.247238 0
87.8965 0.29199 0
87.771 0.0454366 0
87.9059 0.266101 0
88.0113 0.345076 0
87.9872 0.288831 0
87.9189 0.0873968 0
88.0616 0.301212 0
87.8697 0.112974 0
87.9075 0.255897 0
88.0537 0.333863 0
88.1643 0.376691 0
88.1738 0.385825 0
87.8882 0.00671055 0
88.273 0.439033 0
88.2843 0.427284 0
88.3055 0.376961 0
88.2368 0.185458 0
88.3428 0.199881 0
88.3234 0.421687 0
88.0867 0.114986 0
88.4457 0.474073 0
88.4352 0.466085 0
88.4412 0.419371 0
88.328 0.12172 0
88.5219 0.465042 0
88.6505 0.579932 0
88.4984 0.217967 0
88.4466 0.230981 0
88.6052 0.469404 0
88.7735 0.601644 0
88.3648 0.143466 0
88.8139 0.636715 0
88.852 0.619354 0
88.6562 0.121408 0
88.9933 0.708113 0
89.0266 0.679085 0
89.0923 0.584644 0
88.8656 0.258058 0
88.8372 0.291781 0
89.0079 0.655881 0
88.7385 0.189754 0
89.1777 0.781303 0
89.2304 0.736661 0
89.226 0.678529 0
88.9533 0.10314 0
89.4044 0.798819 0
89.4212 0.815817 0
89.2556 0.457999 0
89.5121 0.641385 0
89.2714 0.372342 0
89.4757 0.782243 0
89.1567 0.236179 0
89.636 0.909142 0
89.6605 0.878182 0
89.1941 0.188278 0
89.7275 0.807512 0
89.9143 0.928465 0
89.8248 0.908083 0
89.6965 0.211369 0
90.1247 0.968627 0
90.1695 1.03377 0
89.6589 0.629278 0
90.0515 0.765473 0
89.7148 0.382832 0
90.3637 1.08468 0
89.8828 0.117674 0
90.4266 1.05196 0
90.418 0.995336 0
89.7025 0.0942869 0
90.3443 0.900391 0
90.7404 1.05977 0
90.8317 1.06654 0
90.2782 0.267471 0
90.9035 1.03794 0
90.9521 1.10588 0
90.2679 0.679352 0
90.9498 0.725603 0
90.4321 0.258721 0
91.117 1.10016 0
90.4533 0.0955608 0
91.2603 1.02283 0
91.3472 1.00527 0
90.2855 0.0687367 0
91.162 0.830183 0
91.6304 0.928488 0
91.7888 0.864747 0
90.7101 0.164816 0
91.6253 0.80926 0
91.923 0.811395 0
91.2527 0.705041 0
91.703 0.391925 0
90.7865 0.100785 0
91.6922 0.726873 0
90.793 0.0359545 0
92.1625 0.703052 0
92.2462 0.55852 0
90.6952 0.0365743 0
91.9468 0.256618 0
92.3899 0.27666 0
92.5733 0.142717 0
90.7736 -0.103513 0
92.6596 -0.0595888 0
92.7025 -0.19296 0
90.9155 -0.27947 0
92.7165 -0.225267 0
91.9168 -0.660523 0
91.2016 -0.108482 0
91.012 -0.0105104 0
92.847 -0.513857 0
92.606 -0.901053 0
93.0303 -1.07927 0
90.6631 -0.00667083 0
92.3122 -1.34497 0
93.0266 -1.80629 0
90.6147 -0.127114 0
92.1489 -1.3114 0
93.0003 -2.34051 0
91.5875 -1.77157 0
90.5839 -0.664815 0
92.8084 -2.68611 0
92.6693 -2.97729 0
91.5541 -1.12655 0
90.9867 -3.13986 0
88.9623 -2.58999 0
92.311 -3.01329 0
89.3848 -0.406734 0
92.2951 -3.95877 0
89.735 7.25224 0
90.4645 6.48148 0
85.0733 1.91982 0
89.6302 7.20976 0
87.3977 6.60318 0
88.9712 7.84169 0
85.6676 0.754298 0
87.9943 8.04622 0
86.823 7.92245 0
84.415 0.960525 0
86.8967 8.44672 0
92.2051 -4.37543 0
89.6306 -0.253051 0
91.9399 -4.71868 0
90.7049 -5.11713 0
90.1534 -4.40621 0
88.7339 -0.267963 0
90.946 -5.70369 0
85.5947 7.72012 0
90.296 -6.97686 0
88.48 -1.3966 0
89.9738 -6.7443 0
89.111 -7.70713 0
83.256 2.35916 0
88.6756 -7.56476 0
89.8874 -4.22005 0
89.1662 -6.85313 0
87.3077 -5.07536 0
86.3733 -0.834735 0
88.2302 -6.96213 0
87.4384 -7.37191 0
84.9721 8.14673 0
87.5095 -7.38312 0
87.2081 -0.453081 0
86.4806 -7.73799 0
85.9686 -8.44173 0
85.6908 -0.561567 0
84.8788 -8.58854 0
85.3857 -6.30253 0
83.5166 -0.650797 0
83.8685 -8.74189 0
83.9334 -4.8489 0
85.6501 -3.8161 0
84.4101 -7.48343 0
83.3012 -7.83634 0
85.9661 4.37677 0
82.3464 0.528086 0
85.3732 2.92782 0
84.0264 -0.0738803 0
82.7567 -8.50093 0
84.5956 7.71725 0
82.0717 0.38346 0
84.0235 6.56698 0
81.8915 -8.36702 0
83.5957 -1.71084 0
81.1789 -6.1109 0
84.0181 8.79696 0
80.9538 2.02175 0
83.9188 8.72309 0
81.6961 7.28045 0
81.2425 0.411836 0
82.3299 7.65219 0
81.7876 -6.35507 0
83.1047 -0.472459 0
81.038 -8.49558 0
81.0563 -8.26388 0
82.7033 8.21754 0
80.7793 7.83834 0
80.5473 0.0405151 0
81.8406 8.08968 0
79.976 5.07227 0
80.5499 2.28428 0
80.1164 -8.4464 0
81.0232 -1.09631 0
80.4492 -8.3211 0
79.6542 8.29017 0
79.4901 -7.71809 0
80.1484 -1.07698 0
79.7773 -3.39399 0
78.2294 -7.41625 0
81.25 -4.09975 0
78.0885 -7.17317 0
79.6424 -0.289714 0
77.173 -6.85423 0
79.3147 2.86157 0
79.9168 0.460701 0
79.2235 6.96238 0
79.2999 0.11649 0
79.0216 8.16799 0
78.7349 7.66776 0
78.9799 0.185384 0
77.9721 6.71248 0
78.7546 0.133596 0
78.5549 -6.41094 0
79.6413 -0.575497 0
79.7811 6.03489 0
77.9124 0.737665 0
77.5246 6.30403 0
77.0573 -6.81529 0
79.7541 -0.230018 0
75.4275 -5.82815 0
77.8902 -0.441871 0
76.2471 -5.73542 0
78.5816 2.54778 0
77.8567 0.120771 0
79.2738 -5.21948 0
77.8587 -0.113232 0
75.5486 -5.39953 0
76.9311 5.6886 0
76.9477 -4.26374 0
77.8782 -0.243504 0
75.8501 -4.62665 0
77.9439 3.14095 0
75.7944 1.99458 0
76.4302 4.91912 0
77.6515 -0.985925 0
75.6972 -5.12693 0
77.8226 0.403093 0
76.3549 6.6363 0
77.7102 -2.37796 0
77.8585 -0.0845286 0
75.3629 -4.62413 0
76.0833 5.92965 0
77.8446 0.718285 0
76.0303 4.63547 0
75.7546 4.57522 0
77.8163 0.381649 0
74.9559 4.074 0
74.5101 -4.15513 0
77.8465 -0.295742 0
74.2094 -4.14641 0
76.5717 -1.97763 0
77.8579 -0.201459 0
73.5814 -2.82692 0
75.0194 5.0684 0
77.7701 0.621799 0
76.2531 3.2482 0
74.1908 -2.56788 0
77.7606 -0.312415 0
73.5425 -2.33875 0
73.9042 3.73088 0
77.7705 0.265895 0
74.3027 3.51306 0
74.5993 2.86733 0
77.857 0.0350028 0
73.7687 3.05311 0
74.88 -1.51233 0
77.7095 -0.541628 0
74.1726 -1.33227 0
73.0016 -0.84817 0
77.0564 -0.925271 0
73.0507 -0.717784 0
76.7635 0.960086 0
77.7978 0.0779949 0
75.8671 2.43369 0
73.5484 2.45993 0
77.6698 0.0592404 0
73.1248 1.5537 0
77.3962 -0.235807 0
77.8432 -0.11231 0
73.0491 -0.236126 0
73.5713 -0.09282 0
77.8176 -0.0661784 0
75.7796 0.308325 0
73.7383 0.527238 0
77.8293 -0.0621706 0
77.1471 -5.65045 0
77.9228 -0.433212 0
77.8462 0.132987 0
77.9859 6.87375 0
78.932 -7.72443 0
81.9802 -0.943228 0
80.3815 0.995119 0
81.6069 8.59514 0
77.8003 0.280162 0
74.4683 4.85015 0
73.9427 -2.8342 0
77.8094 -0.201714 0
77.874 -0.573757 0
77.5247 -3.66632 0
77.9394 0.80237 0
77.9081 0.200128 0
77.8099 -0.000544452 0
73.6173 2.05231 0
79.2592 0.466265 0
78.3586 1.57614 0
78.682 -1.37308 0
80.1947 -0.690164 0
85.7774 -1.26398 0
85.3558 -8.43243 0
87.2482 8.04435 0
85.3115 0.467307 0
77.7243 1.66482 0
79.5702 7.9854 0
78.4965 -7.07091 0
79.2093 -2.31316 0
76.8701 -1.45991 0
74.5672 -0.221097 0
76.1197 5.82392 0
78.0434 1.89187 0
77.8826 -1.79005 0
74.7357 -4.62955 0
91.689 -5.35405 0
88.4163 -0.659 0
87.9895 0.788523 0
92.1328 4.45845 0
77.9345 -0.815853 0
77.8804 -0.0445806 0
77.8696 0.148574 0
78.9082 0.757002 0
83.0469 0.732915 0
82.6787 4.09444 0
81.1412 -1.98609 0
84.2432 -1.73932 0
81.5971 4.88775 0
84.5309 8.27971 0
83.3614 -8.66001 0
82.4863 -1.91565 0
86.5488 1.60446 0
87.6336 5.00613 0
86.1944 -2.78 0
87.35 -0.0419435 0
90.5583 -0.254274 0
92.9907 -1.32372 0
92.8398 0.538192 0
89.7419 0.0283018 0
90.7583 0.00256614 0
92.2871 0.538505 0
92.0683 -0.525173 0
90.8932 0.0419505 0
78.973 -1.44752 0
78.4214 -0.574699 0
78.3359 1.2374 0
79.1414 0.950193 0
78.1773 1.22672 0
77.8773 0.240853 0
77.8558 -0.107079 0
78.1037 -1.12786 0
89.425 0.95152 0
90.6584 1.87915 0
89.7493 -1.14355 0
89.964 -0.170479 0
75.9115 -0.959514 0
77.8362 -0.155963 0
77.438 -0.44017 0
77.8516 -0.375275 0
77.846 0.205612 0
77.8485 0.968347 0
91.4178 0.949518 0
90.586 0.149509 0
90.7158 -0.00386223 0
91.1569 -1.03307 0
81.6057 -0.0392772 0
80.8433 -2.82149 0
81.9082 1.80134 0
80.6078 0.447727 0
77.7733 4.04318 0
77.2716 7.30871 0
77.02 -6.25525 0
78.2409 -3.22616 0
78.7381 -2.11137 0
77.485 -2.23014 0
77.8644 4.63539 0
78.1712 2.22563 0
90.8981 0.0552933 0
90.6218 0.1456 0
90.8116 -0.0523713 0
91.7886 0.0735392 0
79.6936 -5.41598 0
80.7774 -5.2519 0
80.3636 4.63445 0
80.9023 8.51567 0
79.0312 -3.97651 0
80.1999 -2.31176 0
80.0345 3.11416 0
79.203 1.5366 0
90.6752 1.12736 0
90.107 0.138904 0
90.3339 -0.0103542 0
90.2617 -1.01726 0
77.2671 1.01521 0
77.8387 0.0296817 0
90.7819 -0.0521537 0
91.4299 -0.330583 0
91.1413 0.232741 0
90.6246 0.0361944 0
78.7787 -0.956757 0
78.3086 -1.3328 0
79.0834 1.74178 0
78.1936 0.736306 0
77.8863 -0.147161 0
78.1174 -0.699319 0
77.9467 0.315776 0
77.8614 0.136492 0
74.0507 1.71223 0
76.9062 1.52517 0
86.9511 -3.14083 0
90.2878 -6.32562 0
91.2477 5.77764 0
86.6634 2.26683 0
76.7505 -2.31212 0
74.684 -2.898 0
89.4445 0.154169 0
89.7229 0.874766 0
88.7404 0.0756777 0
89.3707 0.836699 0
89.74 -0.853012 0
89.5722 -0.139021 0
89.13 -0.700444 0
89.0435 -0.0128628 0
90.4966 -0.208458 0
90.6215 -0.603479 0
90.4656 0.380017 0
90.2245 0.00698968 0
77.8476 0.179682 0
77.6539 0.539565 0
76.4021 0.452357 0
74.1448 0.845385 0
77.7735 -0.250019 0
77.8326 -0.17016 0
77.3421 0.275303 0
77.2679 -0.750579 0
92.8075 -2.73893 0
89.6709 -1.7463 0
90.6498 2.21763 0
92.9746 1.61869 0
78.0034 -0.0638258 0
78.0988 -0.365931 0
77.8847 0.0524143 0
78.2716 0.26128 0
89.9199 -0.201937 0
89.9447 -0.525368 0
89.9657 0.350123 0
89.5784 0.113682 0
88.5551 0.167123 0
88.7412 0.527153 0
88.7665 -0.616259 0
88.65 -0.150075 0
78.4313 -0.899363 0
79.3324 -2.13285 0
78.7801 1.61147 0
78.4106 1.27274 0
79.0994 2.87846 0
77.5347 1.85127 0
78.0775 -1.92275 0
78.7295 -2.791 0
91.2389 -0.546154 0
92.2039 0.265156 0
92.3757 -0.257485 0
91.6598 0.58747 0
77.6543 -1.14904 0
77.7688 -1.36572 0
77.798 1.0835 0
77.2938 1.30682 0
88.5698 0.547328 0
88.2677 0.164729 0
88.3316 -0.101824 0
88.5075 -0.466864 0
85.0616 4.25451 0
87.0621 7.10362 0
86.5553 -8.36691 0
86.1034 -3.33374 0
75.1609 -3.42039 0
77.4887 -3.51053 0
84.6849 -3.05289 0
85.3282 -1.09436 0
83.6867 0.452485 0
86.9988 3.09654 0
74.7528 4.61901 0
76.6628 2.73046 0
89.2833 -0.0514553 0
89.4622 -0.539603 0
89.3406 0.357794 0
89.2495 0.0974147 0
88.8564 -0.368805 0
88.6307 -1.51082 0
89.1825 2.08211 0
88.2061 0.271328 0
83.0552 1.39309 0
81.3208 0.349378 0
82.4391 -0.334965 0
83.0963 -3.10163 0
91.1045 0.303003 0
91.3979 0.821046 0
91.5552 -0.894991 0
91.421 -0.0363502 0
82.0913 -3.82226 0
83.1829 -1.83217 0
82.4036 2.70406 0
84.9471 5.96827 0
88.1484 0.334566 0
88.0177 0.0634991 0
88.2024 -0.100036 0
88.1356 -0.349601 0
88.7594 -0.184966 0
88.9258 -0.0082855 0
88.8984 0.101324 0
88.727 0.434153 0
79.8655 0.496756 0
79.6248 1.30192 0
79.8814 -1.14579 0
80.7209 -0.317444 0
81.3848 2.82028 0
79.7802 1.9467 0
79.1656 -2.83099 0
78.3412 -2.85965 0
90.5931 -0.485979 0
90.3415 -0.28038 0
90.1583 0.377665 0
91.0995 0.633715 0
79.7698 3.84008 0
80.2755 2.56548 0
79.2454 -0.824562 0
79.0775 -0.293374 0
78.9186 0.265684 0
79.6295 0.887664 0
76.5239 -0.874235 0
77.4981 -1.34776 0
92.1748 -3.63565 0
89.7194 -2.06305 0
89.1753 3.7384 0
92.5638 3.69867 0
77.8724 -0.866051 0
77.8805 -0.142594 0
77.8186 0.199363 0
77.9459 0.846533 0
78.2033 0.0874754 0
78.2255 0.625741 0
78.3735 -0.343806 0
78.5172 -0.0198728 0
75.3812 -0.268136 0
73.0648 0.151594 0
85.0659 3.21207 0
89.1342 2.96567 0
87.8265 -2.50624 0
88.422 -4.95421 0
77.543 2.06597 0
77.1071 1.15259 0
77.8567 -0.0251771 0
77.6443 -0.0500193 0
80.3187 6.81935 0
78.2369 4.05276 0
79.9657 -4.2906 0
78.9845 -8.08773 0
77.348 0.785628 0
77.7611 0.424838 0
90.5024 0.505925 0
90.86 1.10488 0
90.5598 -1.0126 0
90.4759 -0.196211 0
88.3475 -0.121635 0
88.5633 -0.0818326 0
88.537 0.070035 0
88.4288 0.404918 0
92.7421 0.454966 0
91.5886 1.38569 0
91.6542 -0.569376 0
92.8671 -0.710604 0