# vtk DataFile Version 3.0
Unstructured Grid for Triangles
ASCII
DATASET UNSTRUCTURED_GRID
POINTS 29612 DOUBLE
-2.72397e-05 1.23686e-06 0
-2.95789e-05 9.5838e-07 0
-2.77865e-05 -3.1235e-07 0
0.0002024 5e-05 0
0.000203975 4.9875e-05 0
0.000205 5e-05 0
0.000203975 -4.9875e-05 0
0.0002024 -5e-05 0
0.000205 -5e-05 0
0.00020295 4.975e-05 0
0.00020295 -4.975e-05 0
0.000201925 4.9625e-05 0
0.000201925 -4.9625e-05 0
-5.29747e-05 -4.79887e-05 0
-5.5e-05 -5e-05 0
-5.24e-05 -5e-05 0
-5.05983e-05 -4.84325e-05 0
-4.98e-05 -5e-05 0
-4.72e-05 -5e-05 0
-4.83864e-05 -4.87761e-05 0
-4.46e-05 -5e-05 0
-4.59e-05 -4.84239e-05 0
-4.29453e-05 -4.24878e-05 0
-4.47486e-05 -4.20717e-05 0
-4.41829e-05 -4.36609e-05 0
-5.12578e-05 -4.62101e-05 0
-4.93077e-05 -4.53594e-05 0
-5.0706e-05 -4.39006e-05 0
-4.19243e-05 -4.77545e-05 0
-4.40307e-05 -4.71837e-05 0
-4.3691e-05 -4.86724e-05 0
-5.16129e-05 -4.20948e-05 0
-4.95355e-05 -4.15432e-05 0
-5.11646e-05 -4.0128e-05 0
-3.94697e-05 -4.81197e-05 0
-4.06302e-05 -4.55143e-05 0
-5.37257e-05 -3.88197e-05 0
-5.31099e-05 -4.07297e-05 0
-5.23982e-05 -3.88328e-05 0
-3.70063e-05 -4.72956e-05 0
-3.68e-05 -5e-05 0
-3.5308e-05 -4.85302e-05 0
-5.072e-05 -3.7867e-05 0
-4.85506e-05 -3.83975e-05 0
-4.90949e-05 -3.59622e-05 0
-3.37127e-05 -4.84331e-05 0
-3.16e-05 -5e-05 0
-3.26495e-05 -4.7415e-05 0
-5.5e-05 -3.5e-05 0
-5.31201e-05 -3.70361e-05 0
-5.28367e-05 -3.46817e-05 0
-3.63898e-05 -4.48809e-05 0
-3.83315e-05 -4.60336e-05 0
-3.26269e-06 -4.15503e-05 0
-5.99662e-06 -4.09556e-05 0
-5.46944e-06 -4.29488e-05 0
-5.29747e-05 4.79887e-05 0
-5.5e-05 5e-05 0
-5.5e-05 4.75e-05 0
-5.5e-05 4.5e-05 0
-5.34834e-05 4.29171e-05 0
-5.26943e-05 4.42611e-05 0
-5.34026e-05 4.60176e-05 0
-5.31099e-05 4.07297e-05 0
-5.11672e-05 4.01178e-05 0
-5.16129e-05 4.20948e-05 0
-5.24e-05 5e-05 0
-5.05983e-05 4.84325e-05 0
-5.31201e-05 3.70361e-05 0
-5.072e-05 3.7867e-05 0
-5.23982e-05 3.88328e-05 0
-4.8341e-05 4.69132e-05 0
-4.83679e-05 4.87539e-05 0
-5.28367e-05 3.46817e-05 0
-5.5e-05 3.25e-05 0
-5.25657e-05 3.28474e-05 0
-4.98e-05 5e-05 0
-5.30382e-05 3.125e-05 0
-4.19243e-05 4.77545e-05 0
-4.40015e-05 4.7335e-05 0
-4.25917e-05 4.63678e-05 0
-4.35138e-05 2.62661e-05 0
-4.14982e-05 2.74462e-05 0
-4.35654e-05 2.85217e-05 0
-4.59e-05 4.84239e-05 0
-4.36852e-05 4.87027e-05 0
-4.46e-05 5e-05 0
-5.33308e-05 2.92503e-05 0
-5.5e-05 2.75e-05 0
-5.23377e-05 2.76953e-05 0
-4.25282e-05 4.46352e-05 0
-4.09368e-05 4.35728e-05 0
-4.06302e-05 4.55143e-05 0
0.0002009 4.95e-05 0
0.0001998 5e-05 0
0.000199875 4.9375e-05 0
0.00019885 4.925e-05 0
0.0001972 5e-05 0
0.000197825 4.9125e-05 0
0.0001968 4.9e-05 0
0.000195775 4.8875e-05 0
0.0001946 5e-05 0
0.00019475 4.875e-05 0
0.000193725 4.8625e-05 0
0.000192 5e-05 0
0.0001927 4.85e-05 0
0.000191675 4.8375e-05 0
0.00019065 4.825e-05 0
0.0001894 5e-05 0
0.000189625 4.8125e-05 0
0.0001886 4.8e-05 0
0.0001868 5e-05 0
0.000187575 4.7875e-05 0
0.00018655 4.775e-05 0
0.000185515 4.8575e-05 0
0.0001842 5e-05 0
0.0001845 4.75e-05 0
0.000185525 4.7625e-05 0
0.000182564 4.829e-05 0
0.0001816 5e-05 0
0.00018245 4.725e-05 0
0.000183475 4.7375e-05 0
0.000181425 4.7125e-05 0
0.000180295 4.82657e-05 0
0.000179 5e-05 0
0.000179375 4.6875e-05 0
0.0001804 4.7e-05 0
0.000178168 4.80619e-05 0
0.0001764 5e-05 0
0.000177325 4.6625e-05 0
0.00017835 4.675e-05 0
0.000176428 4.76631e-05 0
0.0001763 4.65e-05 0
0.0001738 5e-05 0
0.0001751 4.84164e-05 0
0.000175275 4.6375e-05 0
0.000174025 4.75632e-05 0
0.0001712 5e-05 0
0.000172615 4.78449e-05 0
0.0001722 4.6e-05 0
0.000173225 4.6125e-05 0
0.00017015 4.575e-05 0
0.000171243 4.7381e-05 0
0.000169554 4.79999e-05 0
0.0001686 5e-05 0
0.000167507 4.79751e-05 0
0.000168498 4.64861e-05 0
0.000166 5e-05 0
0.00016558 4.71459e-05 0
0.000167135 4.62887e-05 0
0.0001681 4.55e-05 0
0.00016605 4.525e-05 0
0.000167075 4.5375e-05 0
0.000164059 4.61599e-05 0
0.00016394 4.79552e-05 0
0.000162881 4.6615e-05 0
0.000162975 4.4875e-05 0
0.000165025 4.5125e-05 0
0.000164 4.5e-05 0
0.000161754 4.58641e-05 0
0.000161722 4.78101e-05 0
0.000159956 4.58294e-05 0
0.000160925 4.4625e-05 0
0.00016195 4.475e-05 0
0.000157667 4.60322e-05 0
0.000158875 4.4375e-05 0
0.000159194 4.80155e-05 0
0.0001599 4.45e-05 0
0.00015785 4.425e-05 0
0.000155808 4.56757e-05 0
0.000155647 4.76701e-05 0
0.000154059 4.66642e-05 0
0.000153756 4.50083e-05 0
0.000154839 4.50446e-05 0
0.000156825 4.4125e-05 0
0.000151954 4.80508e-05 0
0.000154052 4.8477e-05 0
0.000153 5e-05 0
0.000154775 4.3875e-05 0
0.000152142 4.56625e-05 0
0.000152821 4.45753e-05 0
0.00015375 4.375e-05 0
0.0001504 5e-05 0
0.000149644 4.85168e-05 0
0.000151787 4.43178e-05 0
0.000152725 4.3625e-05 0
0.000150675 4.3375e-05 0
0.0001517 4.35e-05 0
0.000148119 4.50887e-05 0
0.000148072 4.75757e-05 0
0.000146584 4.63516e-05 0
0.000150008 4.6396e-05 0
0.000149351 4.4543e-05 0
0.00015061 4.46252e-05 0
0.0001476 4.3e-05 0
0.000148625 4.3125e-05 0
0.000146492 4.82975e-05 0
0.000144888 4.73562e-05 0
0.000146676 4.44259e-05 0
0.000145255 4.53656e-05 0
0.000145652 4.38669e-05 0
0.000141401 4.79821e-05 0
0.0001426 5e-05 0
0.00014 5e-05 0
0.000144374 4.38862e-05 0
0.00014555 4.275e-05 0
0.0001435 4.25e-05 0
0.000144525 4.2625e-05 0
0.000142746 4.38121e-05 0
0.000141288 4.43191e-05 0
0.000141707 4.32778e-05 0
0.00013921 4.38992e-05 0
0.000140355 4.5932e-05 0
0.000138302 4.5922e-05 0
0.000142912 4.58869e-05 0
0.000140592 4.30037e-05 0
0.00014145 4.225e-05 0
0.000136458 4.5869e-05 0
0.000137106 4.4063e-05 0
0.0001394 4.2e-05 0
0.000138259 4.28915e-05 0
0.000137484 4.77094e-05 0
0.000139166 4.78902e-05 0
0.00013586 4.78984e-05 0
0.000133449 4.78649e-05 0
0.000134717 4.61848e-05 0
0.000137256 4.25134e-05 0
0.000135323 4.24541e-05 0
0.000136325 4.1625e-05 0
0.000136122 4.2876e-05 0
0.000131206 4.47284e-05 0
0.000133168 4.56738e-05 0
0.000131773 4.65243e-05 0
0.000134756 4.40343e-05 0
0.000132747 4.36463e-05 0
0.000133483 4.26786e-05 0
0.000131081 4.1867e-05 0
0.000132382 4.22815e-05 0
0.000131507 4.3122e-05 0
0.000131059 4.80123e-05 0
0.00013325 4.125e-05 0
0.00012915 4.075e-05 0
0.00012982 4.18199e-05 0
0.000128915 4.26216e-05 0
0.000126366 4.47574e-05 0
0.000127331 4.30908e-05 0
0.000128781 4.44872e-05 0
0.000125336 4.28376e-05 0
0.000130218 4.31077e-05 0
0.000127894 4.16344e-05 0
0.000124774 4.69608e-05 0
0.000127668 4.64148e-05 0
0.000126591 4.8331e-05 0
0.000126722 4.18415e-05 0
0.000125768 4.11931e-05 0
0.000124326 4.13546e-05 0
0.00012505 4.025e-05 0
0.000122408 4.50118e-05 0
0.000120276 4.47432e-05 0
0.00012139 4.32235e-05 0
0.000124336 4.44132e-05 0
0.000123056 4.27595e-05 0
0.000122977 4.09049e-05 0
0.00012185 4.69217e-05 0
0.000122676 4.85947e-05 0
0.000120525 4.86094e-05 0
0.000121479 4.13153e-05 0
0.000119547 4.24221e-05 0
0.000120249 4.07448e-05 0
0.000119925 3.9625e-05 0
0.000119346 4.06114e-05 0
0.000117479 4.47279e-05 0
0.000114726 4.45259e-05 0
0.00011571 4.27814e-05 0
0.000119443 4.66611e-05 0
0.000117447 4.21596e-05 0
0.000118421 4.0752e-05 0
0.000117409 4.04437e-05 0
0.000116775 4.70073e-05 0
0.0001179 4.855e-05 0
0.000115473 4.84802e-05 0
0.00011685 3.925e-05 0
0.000117875 3.9375e-05 0
0.000115454 4.00551e-05 0
0.0001148 3.9e-05 0
0.000115825 3.9125e-05 0
0.000111704 4.23398e-05 0
0.000113786 4.26731e-05 0
0.000112589 4.43871e-05 0
0.000113234 4.06671e-05 0
0.000114754 4.13371e-05 0
0.0001106 4.42326e-05 0
0.000109703 4.24261e-05 0
0.00011275 3.875e-05 0
0.000113775 3.8875e-05 0
0.000110211 4.80875e-05 0
0.000108244 4.71951e-05 0
0.000109312 4.58413e-05 0
0.000111755 3.99116e-05 0
0.00010944 3.92972e-05 0
0.000110415 4.05876e-05 0
0.000108839 4.07536e-05 0
0.000106472 4.76905e-05 0
0.000107274 4.57868e-05 0
0.000108011 3.92415e-05 0
0.000106885 4.04365e-05 0
0.000106625 3.88708e-05 0
0.000105286 4.19254e-05 0
0.000105055 3.95469e-05 0
0.000104215 4.39764e-05 0
0.000106346 4.40629e-05 0
0.000100945 4.51249e-05 0
0.000102825 4.5614e-05 0
0.000101189 4.68452e-05 0
0.000107625 3.8125e-05 0
0.000105575 3.7875e-05 0
0.0001066 3.8e-05 0
0.000103352 4.76905e-05 0
0.000101803 4.8465e-05 0
0.000103685 3.89398e-05 0
0.00010245 3.8825e-05 0
0.000103525 3.7625e-05 0
0.000101092 3.99779e-05 0
0.000101267 3.82619e-05 0
0.000101382 4.2025e-05 0
0.000103187 4.05286e-05 0
0.000103359 4.24605e-05 0
9.87383e-05 4.5447e-05 0
9.99411e-05 4.35161e-05 0
9.744e-05 4.33145e-05 0
0.00010045 3.725e-05 0
0.000101475 3.7375e-05 0
9.70845e-05 4.65215e-05 0
9.52614e-05 4.67664e-05 0
9.61768e-05 4.49944e-05 0
9.9729e-05 3.87704e-05 0
9.78901e-05 3.9598e-05 0
9.85823e-05 3.81492e-05 0
9.62289e-05 3.93709e-05 0
9.74259e-05 3.81279e-05 0
9.7375e-05 3.6875e-05 0
9.63045e-05 3.76631e-05 0
9.58e-05 5e-05 0
9.32e-05 5e-05 0
9.47542e-05 4.8457e-05 0
9.49675e-05 3.85246e-05 0
9.36214e-05 3.89472e-05 0
9.40006e-05 3.74906e-05 0
9.66411e-05 4.12573e-05 0
9.44241e-05 4.07079e-05 0
9.03569e-05 4.24993e-05 0
9.21701e-05 4.02409e-05 0
9.27439e-05 4.27744e-05 0
8.89795e-05 4.09067e-05 0
9.03071e-05 4.0248e-05 0
9.25447e-05 3.77721e-05 0
9.3275e-05 3.6375e-05 0
9.07708e-05 3.87127e-05 0
9.11303e-05 3.70839e-05 0
9.11933e-05 4.55145e-05 0
9.30678e-05 4.73279e-05 0
9.11886e-05 4.82603e-05 0
8.87724e-05 3.88076e-05 0
8.99595e-05 3.75116e-05 0
9.02e-05 3.6e-05 0
8.89241e-05 3.6954e-05 0
8.36977e-05 4.59472e-05 0
8.36223e-05 4.83578e-05 0
8.20467e-05 4.74142e-05 0
8.71227e-05 4.03557e-05 0
8.61e-05 3.55e-05 0
8.68368e-05 3.65714e-05 0
8.5484e-05 3.6588e-05 0
8.47735e-05 4.02845e-05 0
8.23121e-05 4.21599e-05 0
8.26582e-05 3.98147e-05 0
8.46943e-05 4.2454e-05 0
8.38832e-05 3.78613e-05 0
8.35569e-05 3.63808e-05 0
8.44098e-05 3.6291e-05 0
8.5075e-05 3.5375e-05 0
8.51465e-05 4.77163e-05 0
8.3025e-05 3.5125e-05 0
8.22824e-05 3.68659e-05 0
8.1446e-05 3.57362e-05 0
8.05884e-05 3.71794e-05 0
7.53471e-05 4.77524e-05 0
7.38313e-05 4.73927e-05 0
7.39102e-05 4.61526e-05 0
7.9826e-05 3.58588e-05 0
7.88607e-05 3.76287e-05 0
7.81733e-05 3.57987e-05 0
8.16783e-05 3.84471e-05 0
8.07975e-05 4.04095e-05 0
7.52138e-05 4.04775e-05 0
7.67682e-05 4.17043e-05 0
7.49617e-05 4.21803e-05 0
7.52903e-05 3.84008e-05 0
7.38293e-05 3.93136e-05 0
[...]
CELL_DATA 58684
VECTORS velocity DOUBLE
74.0502 0.333386 0
85.0382 3.92479e-05 0
85.007 -8.32661e-05 0
85.0463 -0.00393287 0
85.0147 0.00441013 0
85.0536 -0.0029047 0
85.0231 0.00330427 0
77.8602 -0.00257277 0
77.8656 -0.0210739 0
77.9355 -0.00368151 0
78.0233 -0.00642591 0
78.0721 -0.392045 0
77.8833 -0.0998722 0
78.1421 -0.130063 0
77.8682 -0.168371 0
78.3169 -0.168133 0
77.8602 -0.099614 0
78.6475 -0.15558 0
77.9002 -0.291097 0
79.1315 -0.111551 0
77.8734 -0.101574 0
78.6202 -0.363859 0
85.05 -2.14576 0
77.8552 0.010253 0
77.8518 0.0455843 0
77.8552 0.0221531 0
77.8712 0.126212 0
77.8657 0.0201153 0
77.8706 0.169311 0
77.9353 0.0450183 0
77.87 0.129822 0
77.9022 0.0292282 0
77.8345 0.130142 0
78.2051 0.15806 0
77.9364 1.09945 0
78.0805 0.0645711 0
77.8815 0.159233 0
78.273 0.345182 0
85.0659 0.00406912 0
85.0754 0.000525117 0
85.0901 -0.00890856 0
85.0941 -0.000342067 0
85.1175 0.00102086 0
85.1331 -0.00716903 0
85.1396 -0.00884071 0
85.1487 0.000598371 0
85.1701 0.0022471 0
85.1846 -0.00910802 0
85.1893 -0.00232184 0
85.2177 0.00191786 0
85.2365 -0.0101847 0
85.2444 -0.00943316 0
85.254 0.00121708 0
85.2806 0.00378131 0
85.2978 -0.0102382 0
85.3033 -0.00414338 0
85.3368 0.00237849 0
85.3593 -0.0133505 0
85.3689 -0.0117936 0
85.3821 -0.000382122 0
85.4165 0.00429272 0
85.4188 -0.0142275 0
85.4579 -0.00603237 0
85.4958 0.0037851 0
85.4926 -0.0170794 0
85.505 -0.00636924 0
85.5354 -0.00556967 0
85.5686 0.00343145 0
85.5696 -0.0121295 0
85.601 -0.00647356 0
85.6434 0.00171546 0
85.6391 -0.0156389 0
85.6636 -0.00603393 0
85.6877 -0.0235635 0
85.7377 0.00471115 0
85.7431 -0.0163209 0
85.7641 -0.0111078 0
85.8223 0.00404842 0
85.8185 -0.0202941 0
85.9012 -0.0150775 0
85.8377 -0.0143502 0
85.9199 0.00495469 0
85.9532 -0.0143348 0
85.9242 -0.0212286 0
86.0361 -0.0144133 0
86.0131 -0.0150692 0
85.9847 -0.0226677 0
86.0237 -0.0274734 0
86.1221 -0.0148378 0
86.152 -0.0239763 0
86.0827 -0.0171309 0
86.1297 -0.0311031 0
86.2098 -0.0233264 0
86.1868 -0.0265494 0
86.2044 -0.0327143 0
86.306 -0.0325008 0
86.2802 -0.0332584 0
86.2742 -0.0354978 0
86.3298 -0.0481787 0
86.376 -0.0402538 0
86.4444 -0.0452057 0
86.367 -0.0329873 0
86.4709 -0.0128635 0
86.4402 -0.0490379 0
86.4985 -0.0473572 0
86.4719 -0.0490952 0
86.5415 -0.0208302 0
86.5074 -0.0537669 0
86.5447 -0.0571828 0
86.6329 -0.0357248 0
86.6169 -0.0380553 0
86.5752 -0.0522212 0
86.643 -0.0649285 0
86.6754 -0.0288683 0
86.7122 -0.0609427 0
86.7033 -0.0403464 0
86.8025 -0.00141143 0
86.7283 -0.0684593 0
86.7599 -0.07557 0
86.8267 -0.0694279 0
86.8792 -0.0518888 0
86.8073 -0.0447496 0
86.841 -0.0792824 0
86.9268 -0.0532155 0
86.9006 -0.0836836 0
86.8857 -0.0282263 0
86.9239 -0.0755607 0
86.9759 -0.0277634 0
86.9452 -0.0890086 0
86.9875 -0.102598 0
87.0587 -0.0608188 0
87.0364 -0.0835847 0
87.0166 -0.0394643 0
87.0917 -0.110914 0
87.0378 -0.0306193 0
87.0592 -0.109848 0
87.152 -0.12373 0
87.175 -0.0868312 0
87.1962 -0.107039 0
87.1405 -0.104383 0
87.1754 -0.113768 0
87.1501 -0.0501056 0
87.2282 -0.130851 0
87.257 -0.143547 0
87.2965 -0.0930052 0
87.2142 -0.0691613 0
87.2545 -0.122566 0
87.2782 -0.14506 0
87.2433 -0.0281901 0
87.3517 -0.154402 0
87.3654 -0.170805 0
87.4029 -0.103482 0
87.3175 -0.0912429 0
87.3792 -0.142638 0
87.4005 -0.16974 0
87.3387 -0.0303071 0
87.4195 -0.196148 0
87.4664 -0.208874 0
87.4715 -0.144838 0
87.4727 -0.168618 0
87.5114 -0.151427 0
87.5032 -0.214159 0
87.4847 -0.054996 0
87.5117 -0.200915 0
87.5736 -0.202257 0
87.5299 -0.0637068 0
87.6275 -0.236601 0
87.6446 -0.216629 0
87.6198 -0.137053 0
87.6545 -0.103567 0
87.6343 -0.243181 0
87.6661 -0.267137 0
87.6292 -0.0538751 0
87.7181 -0.265508 0
87.7528 -0.270302 0
87.6823 -0.193298 0
87.716 -0.119895 0
87.7429 -0.158403 0
87.7831 -0.310097 0
87.7701 -0.101553 0
87.8244 -0.28564 0
87.8451 -0.277927 0
87.8696 -0.325452 0
87.7882 -0.0044392 0
87.9388 -0.321864 0
87.8428 -0.248428 0
87.9215 -0.222178 0
87.974 -0.2596 0
87.9796 -0.355562 0
88.015 -0.358418 0
87.8767 -0.0801966 0
88.0376 -0.34614 0
88.0648 -0.39981 0
88.0708 -0.384687 0
88.0984 -0.0885188 0
88.0464 -0.303704 0
88.1892 -0.443943 0
88.2054 -0.336179 0
88.1395 -0.282041 0
88.2273 -0.470319 0
88.2214 -0.464924 0
88.093 -0.079583 0
88.2938 -0.518494 0
88.3204 -0.488084 0
88.4413 -0.0993397 0
88.3946 -0.542343 0
88.271 -0.374729 0
88.4655 -0.352025 0
88.5221 -0.457165 0
88.4352 -0.495004 0
88.4566 -0.592418 0
88.4879 -0.218447 0
88.592 -0.580344 0
88.5603 -0.666153 0
88.7155 -0.689689 0
88.6759 -0.0108424 0
88.6776 -0.571044 0
88.7262 -0.719147 0
88.584 -0.178252 0
88.7799 -0.760797 0
88.8709 -0.444808 0
88.8216 -0.796288 0
89.0233 -0.255551 0
88.9707 -0.701537 0
88.9393 -0.826071 0
88.8978 -0.130003 0
89.0681 -0.858192 0
89.2432 -0.853962 0
89.1071 -0.720605 0
89.1562 -0.440504 0
89.2692 -0.987944 0
89.3062 -0.393577 0
89.4778 -0.0676321 0
89.2233 -0.776201 0
89.3806 -0.986331 0
89.4717 -1.0621 0
89.5358 -0.338978 0
89.6286 -0.92691 0
89.7815 -1.02233 0
89.6213 -0.114985 0
89.9391 -1.00416 0
89.842 -1.11854 0
89.7215 -0.827436 0
89.8022 -0.401983 0
89.9155 -0.47294 0
90.0048 -1.13515 0
89.991 -0.00664547 0
90.1196 -1.21617 0
90.2661 -1.15493 0
90.2185 -1.21685 0
90.2439 -0.269919 0
90.3518 -0.9959 0
90.6144 -1.01056 0
90.2261 -0.00468137 0
90.71 -1.20418 0
90.9142 -1.02443 0
90.5429 -0.739328 0
90.3805 -0.310113 0
90.9022 -1.15725 0
90.5511 -0.383562 0
90.3867 -0.0204073 0
90.8387 -0.780281 0
91.1884 -1.05088 0
91.3714 -0.979203 0
90.5644 -0.0882526 0
91.332 -0.671254 0
91.4677 -0.876378 0
90.4397 0.0244765 0
91.6207 -0.861592 0
91.823 -0.719582 0
91.4373 -0.263806 0
90.2136 0.0103217 0
91.9946 -0.478081 0
91.1212 0.186389 0
91.3617 0.297449 0
91.8651 -0.320677 0
91.638 -0.0491991 0
92.3461 -0.0648492 0
90.3444 0.368147 0
92.3282 -0.171868 0
91.8737 0.414925 0
92.5426 0.500471 0
90.2552 0.107253 0
92.5003 1.21753 0
92.2691 1.44872 0
88.9026 0.195057 0
92.7281 0.908626 0
92.6262 1.39219 0
90.2604 1.47973 0
90.0052 0.702957 0
91.5484 1.1212 0
92.5228 1.92995 0
89.1543 0.328354 0
92.0219 2.8212 0
92.7026 2.18078 0
92.7142 2.4082 0
88.3939 1.40759 0
91.0482 2.93992 0
92.0776 3.21175 0
88.377 0.231546 0
91.8902 3.7142 0
91.5449 3.57952 0
90.5711 5.19804 0
86.0947 0.390039 0
91.7066 4.91098 0
89.7194 3.52855 0
87.8493 1.55602 0
87.4632 2.96981 0
91.4719 5.41436 0
90.3346 5.84524 0
86.5327 0.602737 0
90.404 6.67354 0
85.0353 -0.00323331 0
85.0458 -0.000619925 0
85.0602 0.00832868 0
85.0645 -0.000219525 0
85.0869 -0.000965643 0
85.1025 0.0069788 0
85.1087 0.00719067 0
85.1187 -0.00222603 0
85.1388 -0.00209308 0
85.1539 0.00982219 0
85.1584 0.00265221 0
85.1867 -0.00191941 0
85.2052 0.00973852 0
85.2132 0.00923065 0
85.2229 -0.000770821 0
85.2498 -0.00377997 0
85.2668 0.00999806 0
85.2727 0.0037946 0
85.3062 -0.00237087 0
85.3288 0.0136922 0
85.3384 0.0121196 0
85.3751 0.0167191 0
85.3517 0.000225004 0
85.4044 0.00968216 0
85.4489 0.0128961 0
85.4277 0.00645502 0
85.4755 0.00756412 0
85.5062 0.00602543 0
85.5294 0.0193767 0
85.4979 0.0108853 0
85.5719 0.00691394 0
85.5969 0.0217136 0
85.5731 0.0120398 0
85.6596 0.0251298 0
85.6755 0.0185514 0
85.6969 0.0147942 0
85.6515 0.0140076 0
85.7153 0.0168785 0
85.7735 0.0121813 0
85.7363 0.0115408 0
85.832 0.0269992 0
85.8493 0.00767397 0
85.8744 0.0150164 0
85.8255 0.0165297 0
85.8973 0.0210384 0
85.9583 0.0226595 0
86.0088 0.0146316 0
85.9587 0.0249763 0
86.0209 0.0269131 0
86.0366 0.0277217 0
86.1292 0.00984172 0
86.0954 0.0148678 0
86.1253 0.0239645 0
86.1643 0.0377265 0
86.2175 0.0155234 0
86.2085 0.0271825 0
86.2326 0.0409213 0
86.3141 0.0291682 0
86.2514 0.0322825 0
86.3023 0.0485006 0
86.3157 0.0428699 0
86.3693 0.0285424 0
86.4006 0.0200173 0
86.4163 0.0434265 0
86.2695 0.0190892 0
86.4433 0.0484758 0
86.5157 0.0562348 0
86.488 0.0497495 0
86.4681 0.0305219 0
86.5508 0.0578306 0
86.568 0.0507455 0
86.6477 0.0283835 0
86.5476 0.051464 0
86.6301 0.0547484 0
86.6645 0.0656834 0
86.5845 0.0173026 0
86.655 0.0475629 0
86.7327 0.074749 0
86.6783 0.0396569 0
86.7557 0.0663857 0
86.8135 0.0820226 0
86.7847 0.062045 0
86.8322 0.0243276 0
86.8372 0.0720018 0
86.8628 0.0847195 0
86.8656 0.0240962 0
86.9033 0.0941965 0
86.8646 0.0681402 0
86.9472 0.0788264 0
86.8933 0.0521635 0
86.9583 0.102787 0
87.0469 0.124582 0
87.0117 0.0302207 0
86.9987 0.0860946 0
87.0806 0.132635 0
87.06 0.0940219 0
86.9913 0.038181 0
87.1037 0.122187 0
87.1347 0.130004 0
87.0999 0.0312369 0
87.1504 0.0577114 0
87.1774 0.11353 0
87.195 0.150625 0
87.1206 0.0809419 0
87.2309 0.146222 0
87.2552 0.156282 0
87.2602 0.0529767 0
87.2354 0.0961222 0
87.3084 0.17404 0
87.3017 0.147657 0
87.1999 0.0498239 0
87.328 0.165905 0
87.3772 0.176738 0
87.3459 0.0691839 0
87.3423 0.151027 0
87.4332 0.209616 0
87.4162 0.159487 0
87.2938 0.0515748 0
87.4549 0.195287 0
87.5152 0.233821 0
87.3968 0.067029 0
87.4975 0.184249 0
87.4669 0.0852211 0
87.5319 0.19064 0
87.4494 0.108794 0
87.5664 0.245324 0
87.6118 0.241153 0
87.5079 0.0644448 0
87.6001 0.234438 0
87.6639 0.267786 0
87.5944 0.0679105 0
87.5707 0.19749 0
87.645 0.225201 0
87.7 0.268101 0
87.5744 0.0404059 0
87.7018 0.242302 0
87.7853 0.31222 0
87.7561 0.258278 0
87.6806 0.0782041 0
87.8089 0.266954 0
87.649 0.101446 0
87.6993 0.230971 0
87.8102 0.298773 0
87.8945 0.335384 0
87.8987 0.341838 0
87.657 0.00737702 0
87.9736 0.387965 0
87.9798 0.377642 0
87.9817 0.329651 0
87.9125 0.161961 0
87.9914 0.175263 0
88.0034 0.370103 0
87.8013 0.100405 0
88.0955 0.418243 0
88.0823 0.409362 0
88.0794 0.367887 0
87.971 0.105208 0
88.1419 0.410619 0
88.2456 0.513123 0
88.1014 0.192517 0
88.0686 0.203387 0
88.1995 0.414392 0
88.3359 0.538362 0
88.0018 0.126116 0
88.369 0.570325 0
88.3951 0.559752 0
88.2192 0.109973 0
88.5083 0.649575 0
88.5347 0.624732 0
88.5864 0.546867 0
88.3936 0.240043 0
88.3726 0.26836 0
88.5163 0.607472 0
88.2901 0.173711 0
88.658 0.731605 0
88.7005 0.695725 0
88.7001 0.650562 0
88.4646 0.0977154 0
88.8489 0.773353 0
88.8633 0.794915 0
88.7291 0.442218 0
88.9645 0.633808 0
88.7476 0.363534 0
88.9158 0.768942 0
88.6466 0.226322 0
89.0594 0.909254 0
89.0806 0.883896 0
88.6812 0.182574 0
89.1582 0.821648 0
89.3274 0.957702 0
89.2462 0.930827 0
89.1649 0.216527 0
89.5394 1.0157 0
89.5859 1.08849 0
89.103 0.640875 0
89.4981 0.810027 0
89.1737 0.393237 0
89.7892 1.15787 0
89.3585 0.124218 0
89.8572 1.13178 0
89.8582 1.07698 0
89.1742 0.098763 0
89.7937 0.97412 0
90.2006 1.16233 0
90.3031 1.17418 0
89.775 0.29267 0
90.3842 1.14902 0
90.4401 1.22895 0
89.7272 0.733549 0
90.4706 0.809074 0
89.9469 0.286891 0
90.6232 1.22929 0
89.9828 0.105908 0
90.7878 1.14786 0
90.8882 1.13057 0
89.7972 0.0758526 0
90.7047 0.937731 0
91.2094 1.05384 0
91.3916 0.983643 0
90.2653 0.191109 0
91.2153 0.923186 0
91.5459 0.929894 0
90.8117 0.79763 0
91.3402 0.468919 0
90.3673 0.123041 0
91.2997 0.835599 0
90.3988 0.0449354 0
91.8161 0.812212 0
91.9122 0.65311 0
90.2795 0.0437286 0
91.6081 0.329129 0
92.0784 0.350624 0
92.281 0.206343 0
90.437 -0.0921122 0
92.3784 -0.00920357 0
92.4289 -0.150274 0
90.6005 -0.264687 0
92.4455 -0.184276 0
91.632 -0.636155 0
90.856 -0.0766025 0
90.6502 0.0124989 0
92.5889 -0.489747 0
92.3457 -0.890406 0
92.7853 -1.07911 0
90.3298 -0.00662063 0
92.057 -1.34282 0
92.7878 -1.82769 0
90.3001 -0.123257 0
91.8863 -1.30875 0
92.7624 -2.37255 0
91.3308 -1.77565 0
90.2905 -0.655777 0
92.5704 -2.72244 0
92.4281 -3.01333 0
91.2776 -1.11757 0
90.7361 -3.15325 0
88.7051 -2.5864 0
92.0698 -3.04 0
89.1107 -0.408226 0
92.0511 -3.99772 0
89.4785 7.26538 0
90.2099 6.49862 0
84.8321 1.90485 0
89.3759 7.21916 0
87.1447 6.59019 0
88.7175 7.84639 0
85.4188 0.747461 0
87.7389 8.04327 0
86.5735 7.90817 0
84.1705 0.949385 0
86.6452 8.43573 0
91.9608 -4.41214 0
89.3461 -0.250223 0
91.6929 -4.756 0
90.456 -5.13824 0
89.9017 -4.41952 0
88.4673 -0.26655 0
90.694 -5.73238 0
85.3517 7.69583 0
90.0402 -6.99936 0
88.2203 -1.39044 0
89.7179 -6.76326 0
88.8553 -7.7204 0
83.0227 2.33578 0
88.4195 -7.57129 0
89.6362 -4.22792 0
88.9112 -6.86007 0
87.0555 -5.06235 0
86.1195 -0.831553 0
87.9745 -6.96033 0
87.1847 -7.36558 0
84.7274 8.12264 0
87.2563 -7.3796 0
86.9508 -0.450416 0
86.2295 -7.72236 0
85.7168 -8.42735 0
85.4407 -0.558141 0
84.6338 -8.56475 0
85.1378 -6.27718 0
83.2767 -0.64567 0
83.6226 -8.7131 0
83.6978 -4.81566 0
85.4042 -3.79485 0
84.1674 -7.45479 0
83.0635 -7.79968 0
85.7191 4.35408 0
82.1191 0.520849 0
85.1282 2.90606 0
83.7849 -0.0725872 0
82.5197 -8.46364 0
84.354 7.68813 0
81.8493 0.378297 0
83.7848 6.5323 0
81.6607 -8.32508 0
83.3572 -1.69385 0
80.9614 -6.05933 0
83.7767 8.76846 0
80.7476 1.98914 0
83.6747 8.692 0
81.4747 7.23047 0
81.0317 0.405206 0
82.1003 7.61039 0
81.5626 -6.31092 0
82.8705 -0.467521 0
80.8131 -8.45197 0
80.8322 -8.21791 0
82.4704 8.17892 0
80.5622 7.78833 0
80.3515 0.040772 0
81.614 8.04607 0
79.7772 5.01558 0
80.3502 2.24739 0
79.8964 -8.39714 0
80.8147 -1.07835 0
80.2294 -8.27241 0
79.4386 8.23914 0
79.2783 -7.66621 0
79.959 -1.05838 0
79.5882 -3.3476 0
78.0283 -7.36166 0
81.037 -4.05152 0
77.8889 -7.11729 0
79.4677 -0.285897 0
76.9811 -6.79989 0
79.1395 2.82007 0
79.7349 0.453059 0
79.0182 6.90753 0
79.139 0.115457 0
78.8104 8.11605 0
78.5292 7.61179 0
78.8307 0.183308 0
77.7776 6.65484 0
78.6194 0.131782 0
78.361 -6.35606 0
79.4658 -0.56654 0
79.5783 5.978 0
77.8576 0.692986 0
77.3362 6.2477 0
76.8679 -6.76134 0
79.5772 -0.226337 0
75.2515 -5.78152 0
77.8547 -0.406706 0
76.0688 -5.68648 0
78.4282 2.51741 0
77.8522 0.109556 0
79.0799 -5.16264 0
77.8532 -0.101282 0
75.3772 -5.35554 0
76.7502 5.63506 0
76.7809 -4.22042 0
77.8596 -0.217453 0
75.6847 -4.58388 0
77.7891 3.10455 0
75.6593 1.97278 0
76.2577 4.86976 0
77.5804 -0.957977 0
75.5259 -5.08286 0
77.7962 0.371722 0
76.17 6.58252 0
77.5768 -2.35582 0
77.8544 -0.0758396 0
75.2001 -4.58476 0
75.9042 5.87868 0
77.7967 0.678248 0
75.8655 4.59036 0
75.5876 4.53124 0
77.7884 0.3539 0
74.7976 4.0366 0
74.3484 -4.11878 0
77.825 -0.270156 0
74.0481 -4.11273 0
76.4424 -1.95928 0
77.843 -0.182353 0
73.4295 -2.8036 0
74.8524 5.02514 0
77.7197 0.58765 0
76.1068 3.21464 0
74.0396 -2.54555 0
77.7264 -0.293028 0
73.3928 -2.31958 0
73.7461 3.69683 0
77.7352 0.246359 0
74.1472 3.48168 0
74.4492 2.83853 0
77.8513 0.031126 0
73.6144 3.02614 0
74.7416 -1.49942 0
77.6589 -0.514981 0
74.0296 -1.32208 0
72.8523 -0.84188 0
76.9619 -0.914861 0
72.9026 -0.713343 0
76.6586 0.949188 0
77.7752 0.0737923 0
75.7244 2.40645 0
73.3956 2.43699 0
77.6279 0.0550867 0
72.9745 1.53928 0
77.3297 -0.230673 0
77.834 -0.103407 0
72.9012 -0.235177 0
73.427 -0.0929974 0
77.7956 -0.0614453 0
75.6554 0.302691 0
73.594 0.520217 0
77.8137 -0.0571711 0
76.9682 -5.59844 0
77.8807 -0.397294 0
77.8376 0.120938 0
77.7906 6.81673 0
78.7223 -7.67138 0
81.7571 -0.929745 0
80.1865 0.978429 0
81.3768 8.55079 0
77.7778 0.259324 0
74.3036 4.80847 0
73.7912 -2.81149 0
77.7997 -0.185475 0
77.8282 -0.534133 0
77.3631 -3.62708 0
77.8748 0.761454 0
77.8903 0.179715 0
77.7847 -0.000835186 0
73.4678 2.03393 0
79.0978 0.45953 0
78.2327 1.55425 0
78.5423 -1.35844 0
80.0042 -0.678447 0
85.5322 -1.25605 0
85.1086 -8.41284 0
86.9971 8.03409 0
85.068 0.462935 0
77.6179 1.64075 0
79.3571 7.93274 0
78.2965 -7.01521 0
79.0408 -2.28357 0
76.7634 -1.44847 0
74.4287 -0.219457 0
75.9415 5.77403 0
77.9248 1.86655 0
77.7689 -1.77005 0
74.5732 -4.59149 0
91.4414 -5.39096 0
88.1517 -0.65504 0
87.7313 0.784623 0
91.8861 4.49465 0
77.8688 -0.776661 0
77.8652 -0.0385778 0
77.8503 0.133358 0
78.7621 0.746383 0
82.8139 0.724995 0
82.4491 4.05864 0
80.9298 -1.95615 0
84.0015 -1.72527 0
81.3763 4.84021 0
84.2886 8.25202 0
83.1201 -8.62781 0
82.2565 -1.89183 0
86.2993 1.59401 0
87.381 4.99494 0
85.9451 -2.7634 0
87.0947 -0.0416573 0
90.252 -0.246687 0
92.7485 -1.33154 0
92.5769 0.513406 0
89.46 0.0279437 0
90.3695 0.00279 0
91.9578 0.632643 0
91.7229 -0.617664 0
90.5412 0.0301897 0
78.8213 -1.43083 0
78.3036 -0.562976 0
78.2168 1.21639 0
78.9847 0.93685 0
78.0729 1.19816 0
77.8592 0.215146 0
77.8509 -0.0964661 0
78.0112 -1.09568 0
89.1567 0.947837 0
90.3906 1.87838 0
89.4773 -1.14031 0
89.675 -0.169835 0
75.7905 -0.954481 0
77.8124 -0.144131 0
77.3761 -0.427905 0
77.8223 -0.344887 0
77.8312 0.188488 0
77.7763 0.929546 0
90.9697 1.07336 0
90.126 0.16745 0
90.3101 -0.00428775 0
90.669 -1.15129 0
81.3881 -0.0399072 0
80.6377 -2.78036 0
81.6864 1.77725 0
80.4086 0.440066 0
77.6083 3.99517 0
77.0775 7.25314 0
76.8347 -6.20168 0
78.0842 -3.18977 0
78.5878 -2.08767 0
77.3595 -2.21129 0
77.6909 4.58212 0
78.0354 2.20159 0
90.5543 0.0383016 0
90.3007 0.136734 0
90.4668 -0.0461836 0
91.4479 0.13068 0
79.4921 -5.36072 0
80.5638 -5.20019 0
80.1608 4.58064 0
80.6791 8.47023 0
78.8498 -3.92757 0
80.0064 -2.27617 0
79.8417 3.06898 0
79.0419 1.51522 0
90.1287 1.23033 0
89.5947 0.150247 0
89.8532 -0.0111062 0
89.6852 -1.08625 0
77.179 0.996667 0
77.8271 0.0285505 0
90.3781 -0.0673901 0
91.0385 -0.39631 0
90.7449 0.277915 0
90.1896 0.0433481 0
78.6376 -0.944755 0
78.1924 -1.31051 0
78.9262 1.71851 0
78.0979 0.710922 0
77.8705 -0.131421 0
78.0375 -0.665679 0
77.9009 0.28831 0
77.8492 0.122443 0
73.9059 1.69632 0
76.7941 1.50943 0
86.7036 -3.12619 0
90.0328 -6.34476 0
90.9963 5.80382 0
86.4145 2.25499 0
76.6161 -2.2904 0
74.5352 -2.87229 0
88.9173 0.153025 0
89.1457 0.888488 0
88.2854 0.0699783 0
88.8187 0.808794 0
89.1669 -0.858171 0
89.0432 -0.141079 0
88.6176 -0.65836 0
88.547 -0.0124923 0
90.0245 -0.233801 0
90.1193 -0.666819 0
89.9721 0.420067 0
89.7297 0.00743051 0
77.8294 0.165599 0
77.6009 0.51325 0
76.2951 0.447522 0
74.0016 0.836736 0
77.7378 -0.233202 0
77.8187 -0.157244 0
77.2731 0.268723 0
77.1849 -0.73826 0
92.5688 -2.77673 0
89.4056 -1.74355 0
90.3892 2.22076 0
92.7308 1.63319 0
77.9455 -0.0600065 0
78.0198 -0.346735 0
77.8663 0.0452802 0
78.1731 0.251426 0
89.3969 -0.212526 0
89.3995 -0.547956 0
89.4365 0.37114 0
89.0487 0.115533 0
88.1453 0.150047 0
88.3033 0.472338 0
88.3353 -0.551894 0
88.2195 -0.135212 0
78.3119 -0.881221 0
79.1639 -2.1039 0
78.6327 1.59202 0
78.287 1.25433 0
78.9301 2.83952 0
77.4204 1.82919 0
77.9558 -1.90285 0
78.5687 -2.75764 0
90.9333 -0.525122 0
91.8859 0.339522 0
92.059 -0.329755 0
91.3579 0.563549 0
77.5727 -1.12251 0
77.677 -1.33866 0
77.7218 1.04756 0
77.1965 1.28601 0
88.1874 0.481986 0
87.9333 0.14387 0
87.9794 -0.0886886 0
88.142 -0.411456 0
84.8201 4.22781 0
86.8133 7.08947 0
86.3012 -8.35588 0
85.8589 -3.31425 0
75.0084 -3.38951 0
77.3325 -3.47419 0
84.443 -3.02998 0
85.0808 -1.08525 0
83.4485 0.447614 0
86.7475 3.08282 0
74.5909 4.57907 0
76.5268 2.70282 0
88.7661 -0.0514267 0
88.9205 -0.533661 0
88.815 0.3537 0
88.7337 0.0939609 0
88.5853 -0.367325 0
88.3675 -1.50376 0
88.9218 2.07912 0
87.9471 0.270084 0
82.8252 1.37648 0
81.1085 0.344504 0
82.2107 -0.331547 0
82.8618 -3.07401 0
90.6943 0.358664 0
90.963 0.933252 0
91.1322 -1.01166 0
91.0617 -0.0833861 0
81.8674 -3.78187 0
82.9494 -1.81243 0
82.1772 2.67378 0
84.7063 5.93844 0
87.8722 0.295585 0
87.7495 0.0560918 0
87.8827 -0.0867741 0
87.8753 -0.310727 0
88.3088 -0.167624 0
88.4446 -0.0082949 0
88.4184 0.0933604 0
88.2904 0.391204 0
79.6854 0.48834 0
79.4504 1.28184 0
79.7 -1.12844 0
80.5195 -0.312422 0
81.1713 2.78167 0
79.6006 1.91698 0
78.9929 -2.79392 0
78.1896 -2.82854 0
90.293 -0.477305 0
90.0415 -0.275084 0
89.8685 0.371659 0
90.7993 0.619488 0
79.5779 3.78875 0
80.0816 2.52527 0
79.0832 -0.813576 0
78.9228 -0.289156 0
78.7734 0.261553 0
79.455 0.873901 0
76.4132 -0.867971 0
77.4046 -1.32668 0
91.9301 -3.67285 0
89.4582 -2.06078 0
88.9215 3.73663 0
92.321 3.73658 0
77.8081 -0.826614 0
77.8686 -0.12734 0
77.8073 0.182789 0
77.8821 0.802034 0
78.1128 0.0835034 0
78.1289 0.6043 0
78.2633 -0.33564 0
78.3957 -0.0199917 0
75.249 -0.267302 0
72.9175 0.148894 0
84.8243 3.18977 0
88.8745 2.9619 0
87.5739 -2.49471 0
88.1735 -4.9484 0
77.4237 2.04315 0
77.0081 1.13461 0
77.8528 -0.0227255 0
77.5995 -0.0471324 0
80.1065 6.76656 0
78.0657 4.00351 0
79.7679 -4.23822 0
78.7727 -8.03457 0
77.2739 0.768297 0
77.7249 0.399404 0
90.0013 0.559061 0
90.3349 1.2214 0
90.017 -1.10159 0
89.9999 -0.216888 0
87.9887 -0.105453 0
88.1476 -0.0729767 0
88.1263 0.0620028 0
88.0731 0.354477 0
92.4737 0.424335 0
91.3193 1.38072 0
91.3588 -0.54366 0
92.6128 -0.694081 0