# vtk DataFile Version 3.0
Unstructured Grid for Triangles
ASCII
DATASET UNSTRUCTURED_GRID
POINTS 29612 DOUBLE
-2.72397e-05 1.23686e-06 0
-2.95789e-05 9.5838e-07 0
-2.77865e-05 -3.1235e-07 0
0.0002024 5e-05 0
0.000203975 4.9875e-05 0
0.000205 5e-05 0
0.000203975 -4.9875e-05 0
0.0002024 -5e-05 0
0.000205 -5e-05 0
0.00020295 4.975e-05 0
0.00020295 -4.975e-05 0
0.000201925 4.9625e-05 0
0.000201925 -4.9625e-05 0
-5.29747e-05 -4.79887e-05 0
-5.5e-05 -5e-05 0
-5.24e-05 -5e-05 0
-5.05983e-05 -4.84325e-05 0
-4.98e-05 -5e-05 0
-4.72e-05 -5e-05 0
-4.83864e-05 -4.87761e-05 0
-4.46e-05 -5e-05 0
-4.59e-05 -4.84239e-05 0
-4.29453e-05 -4.24878e-05 0
-4.47486e-05 -4.20717e-05 0
-4.41829e-05 -4.36609e-05 0
-5.12578e-05 -4.62101e-05 0
-4.93077e-05 -4.53594e-05 0
-5.0706e-05 -4.39006e-05 0
-4.19243e-05 -4.77545e-05 0
-4.40307e-05 -4.71837e-05 0
-4.3691e-05 -4.86724e-05 0
-5.16129e-05 -4.20948e-05 0
-4.95355e-05 -4.15432e-05 0
-5.11646e-05 -4.0128e-05 0
-3.94697e-05 -4.81197e-05 0
-4.06302e-05 -4.55143e-05 0
-5.37257e-05 -3.88197e-05 0
-5.31099e-05 -4.07297e-05 0
-5.23982e-05 -3.88328e-05 0
-3.70063e-05 -4.72956e-05 0
-3.68e-05 -5e-05 0
-3.5308e-05 -4.85302e-05 0
-5.072e-05 -3.7867e-05 0
-4.85506e-05 -3.83975e-05 0
-4.90949e-05 -3.59622e-05 0
-3.37127e-05 -4.84331e-05 0
-3.16e-05 -5e-05 0
-3.26495e-05 -4.7415e-05 0
-5.5e-05 -3.5e-05 0
-5.31201e-05 -3.70361e-05 0
-5.28367e-05 -3.46817e-05 0
-3.63898e-05 -4.48809e-05 0
-3.83315e-05 -4.60336e-05 0
-3.26269e-06 -4.15503e-05 0
-5.99662e-06 -4.09556e-05 0
-5.46944e-06 -4.29488e-05 0
-5.29747e-05 4.79887e-05 0
-5.5e-05 5e-05 0
-5.5e-05 4.75e-05 0
-5.5e-05 4.5e-05 0
-5.34834e-05 4.29171e-05 0
-5.26943e-05 4.42611e-05 0
-5.34026e-05 4.60176e-05 0
-5.31099e-05 4.07297e-05 0
-5.11672e-05 4.01178e-05 0
-5.16129e-05 4.20948e-05 0
-5.24e-05 5e-05 0
-5.05983e-05 4.84325e-05 0
-5.31201e-05 3.70361e-05 0
-5.072e-05 3.7867e-05 0
-5.23982e-05 3.88328e-05 0
-4.8341e-05 4.69132e-05 0
-4.83679e-05 4.87539e-05 0
-5.28367e-05 3.46817e-05 0
-5.5e-05 3.25e-05 0
-5.25657e-05 3.28474e-05 0
-4.98e-05 5e-05 0
-5.30382e-05 3.125e-05 0
-4.19243e-05 4.77545e-05 0
-4.40015e-05 4.7335e-05 0
-4.25917e-05 4.63678e-05 0
-4.35138e-05 2.62661e-05 0
-4.14982e-05 2.74462e-05 0
-4.35654e-05 2.85217e-05 0
-4.59e-05 4.84239e-05 0
-4.36852e-05 4.87027e-05 0
-4.46e-05 5e-05 0
-5.33308e-05 2.92503e-05 0
-5.5e-05 2.75e-05 0
-5.23377e-05 2.76953e-05 0
-4.25282e-05 4.46352e-05 0
-4.09368e-05 4.35728e-05 0
-4.06302e-05 4.55143e-05 0
0.0002009 4.95e-05 0
0.0001998 5e-05 0
0.000199875 4.9375e-05 0
0.00019885 4.925e-05 0
0.0001972 5e-05 0
0.000197825 4.9125e-05 0
0.0001968 4.9e-05 0
0.000195775 4.8875e-05 0
0.0001946 5e-05 0
0.00019475 4.875e-05 0
0.000193725 4.8625e-05 0
0.000192 5e-05 0
0.0001927 4.85e-05 0
0.000191675 4.8375e-05 0
0.00019065 4.825e-05 0
0.0001894 5e-05 0
0.000189625 4.8125e-05 0
0.0001886 4.8e-05 0
0.0001868 5e-05 0
0.000187575 4.7875e-05 0
0.00018655 4.775e-05 0
0.000185515 4.8575e-05 0
0.0001842 5e-05 0
0.0001845 4.75e-05 0
0.000185525 4.7625e-05 0
0.000182564 4.829e-05 0
0.0001816 5e-05 0
0.00018245 4.725e-05 0
0.000183475 4.7375e-05 0
0.000181425 4.7125e-05 0
0.000180295 4.82657e-05 0
0.000179 5e-05 0
0.000179375 4.6875e-05 0
0.0001804 4.7e-05 0
0.000178168 4.80619e-05 0
0.0001764 5e-05 0
0.000177325 4.6625e-05 0
0.00017835 4.675e-05 0
0.000176428 4.76631e-05 0
0.0001763 4.65e-05 0
0.0001738 5e-05 0
0.0001751 4.84164e-05 0
0.000175275 4.6375e-05 0
0.000174025 4.75632e-05 0
0.0001712 5e-05 0
0.000172615 4.78449e-05 0
0.0001722 4.6e-05 0
0.000173225 4.6125e-05 0
0.00017015 4.575e-05 0
0.000171243 4.7381e-05 0
0.000169554 4.79999e-05 0
0.0001686 5e-05 0
0.000167507 4.79751e-05 0
0.000168498 4.64861e-05 0
0.000166 5e-05 0
0.00016558 4.71459e-05 0
0.000167135 4.62887e-05 0
0.0001681 4.55e-05 0
0.00016605 4.525e-05 0
0.000167075 4.5375e-05 0
0.000164059 4.61599e-05 0
0.00016394 4.79552e-05 0
0.000162881 4.6615e-05 0
0.000162975 4.4875e-05 0
0.000165025 4.5125e-05 0
0.000164 4.5e-05 0
0.000161754 4.58641e-05 0
0.000161722 4.78101e-05 0
0.000159956 4.58294e-05 0
0.000160925 4.4625e-05 0
0.00016195 4.475e-05 0
0.000157667 4.60322e-05 0
0.000158875 4.4375e-05 0
0.000159194 4.80155e-05 0
0.0001599 4.45e-05 0
0.00015785 4.425e-05 0
0.000155808 4.56757e-05 0
0.000155647 4.76701e-05 0
0.000154059 4.66642e-05 0
0.000153756 4.50083e-05 0
0.000154839 4.50446e-05 0
0.000156825 4.4125e-05 0
0.000151954 4.80508e-05 0
0.000154052 4.8477e-05 0
0.000153 5e-05 0
0.000154775 4.3875e-05 0
0.000152142 4.56625e-05 0
0.000152821 4.45753e-05 0
0.00015375 4.375e-05 0
0.0001504 5e-05 0
0.000149644 4.85168e-05 0
0.000151787 4.43178e-05 0
0.000152725 4.3625e-05 0
0.000150675 4.3375e-05 0
0.0001517 4.35e-05 0
0.000148119 4.50887e-05 0
0.000148072 4.75757e-05 0
0.000146584 4.63516e-05 0
0.000150008 4.6396e-05 0
0.000149351 4.4543e-05 0
0.00015061 4.46252e-05 0
0.0001476 4.3e-05 0
0.000148625 4.3125e-05 0
0.000146492 4.82975e-05 0
0.000144888 4.73562e-05 0
0.000146676 4.44259e-05 0
0.000145255 4.53656e-05 0
0.000145652 4.38669e-05 0
0.000141401 4.79821e-05 0
0.0001426 5e-05 0
0.00014 5e-05 0
0.000144374 4.38862e-05 0
0.00014555 4.275e-05 0
0.0001435 4.25e-05 0
0.000144525 4.2625e-05 0
0.000142746 4.38121e-05 0
0.000141288 4.43191e-05 0
0.000141707 4.32778e-05 0
0.00013921 4.38992e-05 0
0.000140355 4.5932e-05 0
0.000138302 4.5922e-05 0
0.000142912 4.58869e-05 0
0.000140592 4.30037e-05 0
0.00014145 4.225e-05 0
0.000136458 4.5869e-05 0
0.000137106 4.4063e-05 0
0.0001394 4.2e-05 0
0.000138259 4.28915e-05 0
0.000137484 4.77094e-05 0
0.000139166 4.78902e-05 0
0.00013586 4.78984e-05 0
0.000133449 4.78649e-05 0
0.000134717 4.61848e-05 0
0.000137256 4.25134e-05 0
0.000135323 4.24541e-05 0
0.000136325 4.1625e-05 0
0.000136122 4.2876e-05 0
0.000131206 4.47284e-05 0
0.000133168 4.56738e-05 0
0.000131773 4.65243e-05 0
0.000134756 4.40343e-05 0
0.000132747 4.36463e-05 0
0.000133483 4.26786e-05 0
0.000131081 4.1867e-05 0
0.000132382 4.22815e-05 0
0.000131507 4.3122e-05 0
0.000131059 4.80123e-05 0
0.00013325 4.125e-05 0
0.00012915 4.075e-05 0
0.00012982 4.18199e-05 0
0.000128915 4.26216e-05 0
0.000126366 4.47574e-05 0
0.000127331 4.30908e-05 0
0.000128781 4.44872e-05 0
0.000125336 4.28376e-05 0
0.000130218 4.31077e-05 0
0.000127894 4.16344e-05 0
0.000124774 4.69608e-05 0
0.000127668 4.64148e-05 0
0.000126591 4.8331e-05 0
0.000126722 4.18415e-05 0
0.000125768 4.11931e-05 0
0.000124326 4.13546e-05 0
0.00012505 4.025e-05 0
0.000122408 4.50118e-05 0
0.000120276 4.47432e-05 0
0.00012139 4.32235e-05 0
0.000124336 4.44132e-05 0
0.000123056 4.27595e-05 0
0.000122977 4.09049e-05 0
0.00012185 4.69217e-05 0
0.000122676 4.85947e-05 0
0.000120525 4.86094e-05 0
0.000121479 4.13153e-05 0
0.000119547 4.24221e-05 0
0.000120249 4.07448e-05 0
0.000119925 3.9625e-05 0
0.000119346 4.06114e-05 0
0.000117479 4.47279e-05 0
0.000114726 4.45259e-05 0
0.00011571 4.27814e-05 0
0.000119443 4.66611e-05 0
0.000117447 4.21596e-05 0
0.000118421 4.0752e-05 0
0.000117409 4.04437e-05 0
0.000116775 4.70073e-05 0
0.0001179 4.855e-05 0
0.000115473 4.84802e-05 0
0.00011685 3.925e-05 0
0.000117875 3.9375e-05 0
0.000115454 4.00551e-05 0
0.0001148 3.9e-05 0
0.000115825 3.9125e-05 0
0.000111704 4.23398e-05 0
0.000113786 4.26731e-05 0
0.000112589 4.43871e-05 0
0.000113234 4.06671e-05 0
0.000114754 4.13371e-05 0
0.0001106 4.42326e-05 0
0.000109703 4.24261e-05 0
0.00011275 3.875e-05 0
0.000113775 3.8875e-05 0
0.000110211 4.80875e-05 0
0.000108244 4.71951e-05 0
0.000109312 4.58413e-05 0
0.000111755 3.99116e-05 0
0.00010944 3.92972e-05 0
0.000110415 4.05876e-05 0
0.000108839 4.07536e-05 0
0.000106472 4.76905e-05 0
0.000107274 4.57868e-05 0
0.000108011 3.92415e-05 0
0.000106885 4.04365e-05 0
0.000106625 3.88708e-05 0
0.000105286 4.19254e-05 0
0.000105055 3.95469e-05 0
0.000104215 4.39764e-05 0
0.000106346 4.40629e-05 0
0.000100945 4.51249e-05 0
0.000102825 4.5614e-05 0
0.000101189 4.68452e-05 0
0.000107625 3.8125e-05 0
0.000105575 3.7875e-05 0
0.0001066 3.8e-05 0
0.000103352 4.76905e-05 0
0.000101803 4.8465e-05 0
0.000103685 3.89398e-05 0
0.00010245 3.8825e-05 0
0.000103525 3.7625e-05 0
0.000101092 3.99779e-05 0
0.000101267 3.82619e-05 0
0.000101382 4.2025e-05 0
0.000103187 4.05286e-05 0
0.000103359 4.24605e-05 0
9.87383e-05 4.5447e-05 0
9.99411e-05 4.35161e-05 0
9.744e-05 4.33145e-05 0
0.00010045 3.725e-05 0
0.000101475 3.7375e-05 0
9.70845e-05 4.65215e-05 0
9.52614e-05 4.67664e-05 0
9.61768e-05 4.49944e-05 0
9.9729e-05 3.87704e-05 0
9.78901e-05 3.9598e-05 0
9.85823e-05 3.81492e-05 0
9.62289e-05 3.93709e-05 0
9.74259e-05 3.81279e-05 0
9.7375e-05 3.6875e-05 0
9.63045e-05 3.76631e-05 0
9.58e-05 5e-05 0
9.32e-05 5e-05 0
9.47542e-05 4.8457e-05 0
9.49675e-05 3.85246e-05 0
9.36214e-05 3.89472e-05 0
9.40006e-05 3.74906e-05 0
9.66411e-05 4.12573e-05 0
9.44241e-05 4.07079e-05 0
9.03569e-05 4.24993e-05 0
9.21701e-05 4.02409e-05 0
9.27439e-05 4.27744e-05 0
8.89795e-05 4.09067e-05 0
9.03071e-05 4.0248e-05 0
9.25447e-05 3.77721e-05 0
9.3275e-05 3.6375e-05 0
9.07708e-05 3.87127e-05 0
9.11303e-05 3.70839e-05 0
9.11933e-05 4.55145e-05 0
9.30678e-05 4.73279e-05 0
9.11886e-05 4.82603e-05 0
8.87724e-05 3.88076e-05 0
8.99595e-05 3.75116e-05 0
9.02e-05 3.6e-05 0
8.89241e-05 3.6954e-05 0
8.36977e-05 4.59472e-05 0
8.36223e-05 4.83578e-05 0
8.20467e-05 4.74142e-05 0
8.71227e-05 4.03557e-05 0
8.61e-05 3.55e-05 0
8.68368e-05 3.65714e-05 0
8.5484e-05 3.6588e-05 0
8.47735e-05 4.02845e-05 0
8.23121e-05 4.21599e-05 0
8.26582e-05 3.98147e-05 0
8.46943e-05 4.2454e-05 0
8.38832e-05 3.78613e-05 0
8.35569e-05 3.63808e-05 0
8.44098e-05 3.6291e-05 0
8.5075e-05 3.5375e-05 0
8.51465e-05 4.77163e-05 0
8.3025e-05 3.5125e-05 0
8.22824e-05 3.68659e-05 0
8.1446e-05 3.57362e-05 0
8.05884e-05 3.71794e-05 0
7.53471e-05 4.77524e-05 0
7.38313e-05 4.73927e-05 0
7.39102e-05 4.61526e-05 0
7.9826e-05 3.58588e-05 0
7.88607e-05 3.76287e-05 0
7.81733e-05 3.57987e-05 0
8.16783e-05 3.84471e-05 0
8.07975e-05 4.04095e-05 0
7.52138e-05 4.04775e-05 0
7.67682e-05 4.17043e-05 0
7.49617e-05 4.21803e-05 0
7.52903e-05 3.84008e-05 0
7.38293e-05 3.93136e-05 0
[...]
CELL_DATA 58684
VECTORS velocity DOUBLE
74.1054 0.337141 0
85.729 -0.000154154 0
85.702 0.000142017 0
85.7339 -0.00203498 0
85.706 0.00215693 0
85.7399 -0.00218847 0
85.7121 0.002275 0
77.869 -0.00235391 0
77.8787 -0.0238417 0
77.9684 -0.00354171 0
78.0695 -0.00628523 0
78.1239 -0.408013 0
77.9048 -0.109749 0
78.2 -0.134465 0
77.8862 -0.185248 0
78.3851 -0.171488 0
77.8692 -0.111921 0
78.7241 -0.156967 0
77.9279 -0.317306 0
79.2133 -0.11308 0
77.8829 -0.114357 0
78.6966 -0.368375 0
85.1094 -2.17296 0
77.8581 0.0119022 0
77.8574 0.0513637 0
77.8578 0.0249436 0
77.8862 0.14121 0
77.8784 0.0228109 0
77.8836 0.188348 0
77.9668 0.0491861 0
77.8794 0.144782 0
77.927 0.0324846 0
77.8415 0.144503 0
78.2668 0.163201 0
77.9819 1.13089 0
78.1315 0.067827 0
77.8918 0.177388 0
78.3384 0.35451 0
85.7469 0.000803138 0
85.7517 -0.000339165 0
85.7612 -0.00557177 0
85.7645 -0.00249009 0
85.7741 -0.000794341 0
85.7822 -0.0054084 0
85.7853 -0.00671259 0
85.7894 -0.00261482 0
85.7974 -0.000541686 0
85.8042 -0.00743297 0
85.8063 -0.00486617 0
85.8154 -0.0013678 0
85.8236 -0.00844215 0
85.8257 -0.00855586 0
85.8287 -0.00432671 0
85.8368 -0.00104268 0
85.843 -0.00934317 0
85.8444 -0.00701496 0
85.8534 -0.00218002 0
85.862 -0.011514 0
85.864 -0.011116 0
85.8665 -0.00588613 0
85.8769 -0.000771342 0
85.8788 -0.0128658 0
85.8878 -0.00890064 0
85.8994 -0.00065773 0
85.9002 -0.0160146 0
85.9035 -0.0129692 0
85.9114 -0.0111255 0
85.9191 -0.00117011 0
85.921 -0.015603 0
85.9287 -0.0117821 0
85.9389 -0.00214977 0
85.9397 -0.0178058 0
85.9457 -0.0129604 0
85.9536 -0.0215331 0
85.9636 -0.00103874 0
85.9661 -0.0163883 0
85.9724 -0.0106429 0
85.9861 -0.00198379 0
85.988 -0.0222027 0
86.0111 -0.0185545 0
85.9921 -0.0177856 0
86.013 -0.00109976 0
86.022 -0.0118375 0
86.0154 -0.0231524 0
86.0471 -0.0141315 0
86.0411 -0.01878 0
86.0369 -0.0261756 0
86.0496 -0.03118 0
86.0744 -0.0201603 0
86.089 -0.0285016 0
86.0641 -0.0240762 0
86.0816 -0.0346586 0
86.1026 -0.0264894 0
86.0974 -0.0270501 0
86.1065 -0.0370494 0
86.1412 -0.0352796 0
86.124 -0.0300164 0
86.1307 -0.039292 0
86.1504 -0.046034 0
86.159 -0.0350317 0
86.1864 -0.041901 0
86.161 -0.0363972 0
86.1904 -0.0119776 0
86.1901 -0.0467092 0
86.212 -0.0445756 0
86.2024 -0.0476634 0
86.217 -0.0143265 0
86.2185 -0.051179 0
86.2359 -0.056011 0
86.2599 -0.0322111 0
86.2552 -0.034674 0
86.2389 -0.0470324 0
86.2752 -0.0607511 0
86.2769 -0.0250179 0
86.3074 -0.0560152 0
86.2946 -0.0363024 0
86.3359 -0.00275098 0
86.3184 -0.0636236 0
86.3347 -0.0714768 0
86.3696 -0.0641599 0
86.3928 -0.0484082 0
86.3446 -0.0387803 0
86.3792 -0.0733052 0
86.421 -0.0494956 0
86.413 -0.0769659 0
86.3893 -0.026777 0
86.4272 -0.0698511 0
86.4468 -0.0260759 0
86.4412 -0.0812557 0
86.4704 -0.0935668 0
86.5107 -0.0558578 0
86.5009 -0.0772328 0
86.4753 -0.0358967 0
86.5433 -0.101507 0
86.4893 -0.0287356 0
86.5201 -0.100685 0
86.5914 -0.113981 0
86.6077 -0.0802413 0
86.6261 -0.0986282 0
86.5798 -0.0957511 0
86.6097 -0.104707 0
86.5796 -0.0459317 0
86.6564 -0.121303 0
86.6831 -0.133334 0
86.7219 -0.0880856 0
86.6401 -0.0636385 0
86.6805 -0.114274 0
86.7026 -0.135645 0
86.6672 -0.0268254 0
86.7763 -0.146383 0
86.7891 -0.16142 0
86.8386 -0.0997158 0
86.7461 -0.0869453 0
86.8065 -0.135055 0
86.8288 -0.163291 0
86.7719 -0.0287026 0
86.8475 -0.188349 0
86.9008 -0.20254 0
86.921 -0.144189 0
86.9142 -0.165889 0
86.9724 -0.153898 0
86.9465 -0.210623 0
86.9556 -0.0552626 0
86.9577 -0.197953 0
87.0372 -0.203944 0
87.0157 -0.0674041 0
87.1085 -0.243709 0
87.1388 -0.225678 0
87.1202 -0.142863 0
87.1921 -0.11086 0
87.1114 -0.248845 0
87.1511 -0.274567 0
87.1623 -0.0562653 0
87.2308 -0.280402 0
87.2844 -0.289318 0
87.2026 -0.207584 0
87.2744 -0.131375 0
87.3156 -0.17347 0
87.3158 -0.330351 0
87.3685 -0.113819 0
87.388 -0.309735 0
87.4233 -0.30495 0
87.4478 -0.356666 0
87.4064 -0.00448768 0
87.5564 -0.357208 0
87.4373 -0.27535 0
87.5698 -0.250309 0
87.6439 -0.293021 0
87.6074 -0.396396 0
87.67 -0.401278 0
87.5319 -0.0902568 0
87.7119 -0.390393 0
87.7389 -0.4508 0
87.7543 -0.433939 0
87.8658 -0.101561 0
87.7407 -0.345635 0
87.9175 -0.500562 0
87.9775 -0.381336 0
87.8955 -0.321197 0
87.9833 -0.530528 0
87.9649 -0.522595 0
87.8517 -0.0904543 0
88.0776 -0.58379 0
88.1175 -0.547818 0
88.3196 -0.10489 0
88.2244 -0.60322 0
88.0614 -0.420297 0
88.3344 -0.385518 0
88.4005 -0.498095 0
88.2843 -0.547792 0
88.3084 -0.653616 0
88.3811 -0.23677 0
88.4945 -0.630762 0
88.4438 -0.727874 0
88.6468 -0.738835 0
88.6141 -0.0104574 0
88.601 -0.610104 0
88.6611 -0.765234 0
88.5008 -0.189575 0
88.7286 -0.805987 0
88.8326 -0.463319 0
88.7765 -0.843115 0
89.0106 -0.259307 0
88.9615 -0.724436 0
88.9227 -0.854576 0
88.8688 -0.131989 0
89.0725 -0.881762 0
89.2676 -0.859315 0
89.1066 -0.734158 0
89.1573 -0.441305 0
89.3011 -0.988901 0
89.3219 -0.386768 0
89.4962 -0.0667505 0
89.2478 -0.776782 0
89.4265 -0.977949 0
89.5181 -1.05176 0
89.5612 -0.328377 0
89.6767 -0.905511 0
89.8415 -0.99085 0
89.6484 -0.112304 0
89.9995 -0.962603 0
89.9052 -1.0773 0
89.7637 -0.798659 0
89.8354 -0.384877 0
89.9548 -0.449301 0
90.0717 -1.08193 0
90.0244 -0.00591155 0
90.1844 -1.15445 0
90.3289 -1.0929 0
90.2816 -1.15213 0
90.2795 -0.249729 0
90.4027 -0.937359 0
90.6668 -0.946235 0
90.2565 -0.0040006 0
90.7583 -1.12632 0
90.9508 -0.953715 0
90.5827 -0.691802 0
90.4144 -0.285324 0
90.9428 -1.0789 0
90.5825 -0.352299 0
90.4104 -0.0159394 0
90.8785 -0.722533 0
91.2206 -0.976466 0
91.3952 -0.908563 0
90.5878 -0.0717717 0
91.3532 -0.615444 0
91.4893 -0.810116 0
90.4623 0.0332406 0
91.6358 -0.796016 0
91.8327 -0.660556 0
91.453 -0.223308 0
90.2331 0.0106959 0
91.999 -0.428973 0
91.1377 0.211457 0
91.376 0.322853 0
91.873 -0.275937 0
91.6513 -0.012465 0
92.3446 -0.0297224 0
90.363 0.381152 0
92.3272 -0.134725 0
91.8825 0.442507 0
92.5416 0.522136 0
90.2755 0.111377 0
92.5043 1.23301 0
92.2773 1.4652 0
88.928 0.199519 0
92.7294 0.923413 0
92.6333 1.40627 0
90.2828 1.49952 0
90.0272 0.716394 0
91.5618 1.14193 0
92.5341 1.94422 0
89.1795 0.333661 0
92.0421 2.8389 0
92.7136 2.18973 0
92.7273 2.41866 0
88.4277 1.42698 0
91.0694 2.96143 0
92.1004 3.22942 0
88.4078 0.235884 0
91.9147 3.73348 0
91.5687 3.60557 0
90.6054 5.23389 0
86.1434 0.397863 0
91.7376 4.93876 0
89.7514 3.56 0
87.8888 1.57665 0
87.508 3.00253 0
91.5043 5.44564 0
90.3736 5.88689 0
86.5821 0.612214 0
90.443 6.71568 0
85.7189 -0.000456164 0
85.724 0.000281505 0
85.7326 0.00500999 0
85.7357 0.00195029 0
85.7446 0.000796927 0
85.7524 0.00512239 0
85.7552 0.00568098 0
85.7595 0.00191364 0
85.767 0.000601748 0
85.7735 0.00709217 0
85.7754 0.00456191 0
85.7842 0.00133839 0
85.7919 0.00789295 0
85.7939 0.00811618 0
85.797 0.00409947 0
85.8048 0.00102619 0
85.8108 0.00910845 0
85.8125 0.00665794 0
85.8214 0.00216008 0
85.8299 0.0114257 0
85.8318 0.0109513 0
85.8433 0.0138983 0
85.8344 0.00574771 0
85.8517 0.00920312 0
85.8643 0.0143648 0
85.8555 0.0090243 0
85.8715 0.0133264 0
85.8794 0.0112996 0
85.8865 0.0178165 0
85.8759 0.00896198 0
85.8967 0.0119405 0
85.9049 0.0198454 0
85.8967 0.00948909 0
85.9221 0.0225317 0
85.9257 0.0199762 0
85.9319 0.0158256 0
85.9181 0.0118068 0
85.9349 0.0168502 0
85.9525 0.0162244 0
85.9412 0.0109337 0
85.9693 0.0274387 0
85.9696 0.0104536 0
85.9808 0.0188622 0
85.9653 0.0144048 0
85.9853 0.0235193 0
86.0073 0.0266161 0
86.0171 0.0144912 0
86.0043 0.0244659 0
86.0266 0.0291284 0
86.0302 0.031412 0
86.0557 0.0161933 0
86.0452 0.0204016 0
86.0597 0.0287803 0
86.0747 0.0404613 0
86.0842 0.0194868 0
86.0889 0.0326306 0
86.0984 0.0424712 0
86.1149 0.0251757 0
86.0945 0.0301538 0
86.1223 0.0471719 0
86.1253 0.0445779 0
86.1362 0.028642 0
86.1482 0.0205046 0
86.1582 0.0417282 0
86.0976 0.0141009 0
86.1743 0.0482415 0
86.2082 0.0570787 0
86.1911 0.0484388 0
86.1765 0.0292576 0
86.2218 0.0574992 0
86.2293 0.0510878 0
86.2511 0.0253085 0
86.2123 0.0478928 0
86.2549 0.0537477 0
86.2725 0.0624319 0
86.2211 0.0152592 0
86.2611 0.0446121 0
86.3095 0.0719867 0
86.2708 0.0369304 0
86.3214 0.0640997 0
86.353 0.0765644 0
86.3285 0.0563509 0
86.3483 0.0230323 0
86.3641 0.0668751 0
86.3825 0.0787136 0
86.3643 0.020484 0
86.4078 0.0865456 0
86.3745 0.0624088 0
86.4331 0.0722544 0
86.3916 0.0491162 0
86.4434 0.0938418 0
86.5064 0.113757 0
86.4652 0.0284699 0
86.4635 0.077819 0
86.5329 0.120957 0
86.5106 0.0855797 0
86.452 0.0349911 0
86.5501 0.112154 0
86.5744 0.118795 0
86.5344 0.0292526 0
86.5814 0.0534915 0
86.6097 0.103984 0
86.6268 0.138353 0
86.5553 0.0736854 0
86.659 0.13485 0
86.6813 0.144492 0
86.6865 0.0491973 0
86.6615 0.0894724 0
86.733 0.162201 0
86.7277 0.138423 0
86.6261 0.0462621 0
86.7539 0.15566 0
86.8054 0.166825 0
86.781 0.0664435 0
86.7697 0.142794 0
86.8653 0.200273 0
86.8527 0.153098 0
86.7237 0.0487739 0
86.8909 0.18706 0
86.9633 0.229529 0
86.8433 0.0659501 0
86.9506 0.182303 0
86.9294 0.0848331 0
86.9955 0.192366 0
86.9061 0.10831 0
87.0266 0.243779 0
87.0873 0.244836 0
86.9923 0.0677024 0
87.0782 0.239471 0
87.1591 0.277317 0
87.1193 0.0708031 0
87.0468 0.201678 0
87.152 0.237718 0
87.2105 0.281659 0
87.0901 0.0431007 0
87.2243 0.257064 0
87.3301 0.335041 0
87.3116 0.281441 0
87.2472 0.0848495 0
87.3898 0.295029 0
87.1964 0.107983 0
87.2271 0.247714 0
87.3777 0.32604 0
87.4919 0.370627 0
87.5031 0.380238 0
87.2162 0.00588273 0
87.6064 0.433809 0
87.6195 0.421978 0
87.6495 0.3746 0
87.5843 0.183742 0
87.6968 0.200119 0
87.6631 0.418831 0
87.4248 0.113552 0
87.7925 0.472594 0
87.7839 0.464771 0
87.7938 0.418177 0
87.6835 0.12157 0
87.8798 0.465578 0
88.0093 0.58221 0
87.8674 0.218199 0
87.8064 0.230709 0
87.9703 0.471659 0
88.1427 0.605991 0
87.7211 0.142754 0
88.184 0.641313 0
88.2271 0.623662 0
88.0394 0.122205 0
88.3769 0.715616 0
88.4129 0.686192 0
88.4924 0.592709 0
88.2636 0.259929 0
88.2268 0.29423 0
88.3991 0.663722 0
88.1233 0.189385 0
88.5744 0.792658 0
88.6327 0.74751 0
88.6379 0.690366 0
88.3628 0.104588 0
88.819 0.813399 0
88.8394 0.831657 0
88.675 0.466876 0
88.9468 0.655066 0
88.6964 0.378389 0
88.9 0.797414 0
88.5761 0.240333 0
89.0681 0.929092 0
89.0963 0.897629 0
88.6222 0.192256 0
89.1761 0.827801 0
89.3703 0.953765 0
89.2765 0.931984 0
89.1667 0.217287 0
89.5944 0.9972 0
89.6419 1.06556 0
89.1093 0.644558 0
89.5371 0.789689 0
89.1794 0.392814 0
89.8519 1.12103 0
89.3765 0.122096 0
89.9217 1.0881 0
89.919 1.02954 0
89.1808 0.0966684 0
89.8522 0.933076 0
90.2642 1.10069 0
90.3639 1.10984 0
89.8084 0.280455 0
90.445 1.08159 0
90.4968 1.15406 0
89.7743 0.704061 0
90.5169 0.757688 0
89.9831 0.270763 0
90.6748 1.15018 0
90.0162 0.0998479 0
90.8331 1.07095 0
90.9297 1.05365 0
89.8293 0.0716318 0
90.7488 0.871709 0
91.2403 0.977999 0
91.4134 0.911273 0
90.3014 0.17483 0
91.2433 0.852535 0
91.5627 0.859161 0
90.8486 0.740539 0
91.3571 0.420587 0
90.3999 0.107951 0
91.3226 0.768773 0
90.4256 0.0389406 0
91.8238 0.747666 0
91.9169 0.596175 0
90.3092 0.0390085 0
91.6217 0.283401 0
92.0804 0.305471 0
92.278 0.166864 0
90.4589 -0.100786 0
92.3745 -0.0415022 0
92.4251 -0.179779 0
90.6179 -0.279127 0
92.4421 -0.211683 0
91.6422 -0.660132 0
90.8755 -0.100319 0
90.6739 -0.0039112 0
92.5859 -0.509088 0
92.348 -0.907966 0
92.7861 -1.0906 0
90.3502 -0.00716656 0
92.0664 -1.35944 0
92.7947 -1.83453 0
90.321 -0.127811 0
91.8951 -1.32492 0
92.7744 -2.37947 0
91.3468 -1.79372 0
90.3097 -0.669196 0
92.5844 -2.72998 0
92.4469 -3.02372 0
91.2912 -1.13659 0
90.7615 -3.17843 0
88.7409 -2.61385 0
92.0893 -3.05676 0
89.1364 -0.412212 0
92.0772 -4.01498 0
89.5219 7.3119 0
90.2497 6.5412 0
84.8933 1.93067 0
89.4196 7.26696 0
87.1949 6.64354 0
88.7619 7.89694 0
85.4767 0.759489 0
87.7872 8.09623 0
86.6235 7.96368 0
84.2397 0.963288 0
86.6944 8.49135 0
91.9895 -4.43408 0
89.3728 -0.254805 0
91.7249 -4.77921 0
90.4918 -5.1716 0
89.9368 -4.45295 0
88.4999 -0.271555 0
90.7316 -5.76484 0
85.4058 7.75256 0
90.0823 -7.04011 0
88.2579 -1.40909 0
89.7615 -6.80397 0
88.9011 -7.76635 0
83.0969 2.36699 0
88.4667 -7.61952 0
89.6737 -4.26268 0
88.9578 -6.90706 0
87.1082 -5.10904 0
86.17 -0.841341 0
88.0243 -7.01001 0
87.237 -7.41697 0
84.7826 8.17989 0
87.3074 -7.42998 0
86.9971 -0.457069 0
86.2841 -7.77698 0
85.7714 -8.48227 0
85.4973 -0.56597 0
84.6894 -8.62184 0
85.198 -6.33125 0
83.3515 -0.65547 0
83.6807 -8.7716 0
83.7658 -4.86473 0
85.4628 -3.83666 0
84.228 -7.51163 0
83.1255 -7.85859 0
85.7745 4.40105 0
82.2016 0.530328 0
85.1876 2.94226 0
83.8564 -0.0752383 0
82.5789 -8.52318 0
84.4105 7.74677 0
81.9334 0.384716 0
83.8467 6.58879 0
81.7204 -8.38525 0
83.4305 -1.7162 0
81.03 -6.11921 0
83.8322 8.8273 0
80.8326 2.02301 0
83.7315 8.75157 0
81.539 7.29183 0
81.118 0.412253 0
82.1607 7.67077 0
81.6304 -6.36994 0
82.9497 -0.473435 0
80.8731 -8.51237 0
80.8925 -8.27853 0
82.5296 8.23883 0
80.6242 7.84959 0
80.4384 0.042292 0
81.6743 8.10663 0
79.8475 5.07502 0
80.4335 2.28488 0
79.9562 -8.45797 0
80.8998 -1.09631 0
80.2892 -8.33329 0
79.4983 8.30026 0
79.3395 -7.72663 0
80.0433 -1.07596 0
79.6655 -3.39504 0
78.0879 -7.41946 0
81.1145 -4.10499 0
77.9491 -7.17548 0
79.551 -0.290465 0
77.04 -6.85425 0
79.2147 2.86148 0
79.8181 0.460922 0
79.0808 6.9689 0
79.2206 0.117237 0
78.8701 8.17689 0
78.5896 7.67178 0
78.909 0.185495 0
77.8392 6.71305 0
78.6954 0.133579 0
78.4257 -6.4143 0
79.5482 -0.574833 0
79.6455 6.03962 0
77.8871 0.73475 0
77.3971 6.30293 0
76.9272 -6.81444 0
79.6608 -0.229683 0
75.308 -5.82652 0
77.8748 -0.440581 0
76.129 -5.73457 0
78.4977 2.54631 0
77.8548 0.120544 0
79.149 -5.2193 0
77.8565 -0.112832 0
75.4354 -5.39863 0
76.8109 5.68639 0
76.8445 -4.25961 0
77.8706 -0.241943 0
75.7441 -4.62297 0
77.8563 3.1378 0
75.7163 1.99043 0
76.3178 4.91579 0
77.6158 -0.983237 0
75.5845 -5.1234 0
77.81 0.4022 0
76.2275 6.63487 0
77.6386 -2.37395 0
77.8568 -0.0840487 0
75.258 -4.62198 0
75.9614 5.92716 0
77.8221 0.71595 0
75.9257 4.63178 0
75.6461 4.57145 0
77.8035 0.381011 0
74.8537 4.07118 0
74.4027 -4.15003 0
77.8366 -0.294429 0
74.1015 -4.14346 0
76.4993 -1.97316 0
77.8516 -0.200223 0
73.4824 -2.82337 0
74.9084 5.06527 0
77.745 0.619403 0
76.1661 3.24437 0
74.0941 -2.56406 0
77.7439 -0.311649 0
73.4465 -2.33603 0
73.7986 3.72613 0
77.7534 0.264452 0
74.2018 3.51057 0
74.5049 2.86329 0
77.8547 0.034576 0
73.6678 3.05056 0
74.7977 -1.50915 0
77.6837 -0.539485 0
74.0853 -1.33042 0
72.9048 -0.847063 0
77.0043 -0.922094 0
72.9555 -0.717517 0
76.7046 0.958072 0
77.787 0.0786239 0
75.7824 2.42918 0
73.4486 2.45629 0
77.6481 0.0592499 0
73.0264 1.55183 0
77.3602 -0.235075 0
77.839 -0.112271 0
72.9541 -0.235759 0
73.4815 -0.0922889 0
77.8075 -0.0658306 0
75.7089 0.306735 0
73.6481 0.52555 0
77.8222 -0.0619008 0
77.0312 -5.64867 0
77.9053 -0.431869 0
77.842 0.133112 0
77.8508 6.87449 0
78.7825 -7.73119 0
81.8407 -0.944602 0
80.27 0.99596 0
81.4357 8.61175 0
77.7892 0.279627 0
74.3571 4.84624 0
73.8452 -2.83255 0
77.8039 -0.201897 0
77.8536 -0.572677 0
77.4287 -3.66369 0
77.9104 0.800516 0
77.9021 0.198639 0
77.7983 -0.000384502 0
73.5216 2.05012 0
79.1783 0.465468 0
78.2982 1.57334 0
78.6155 -1.37226 0
80.0881 -0.690069 0
85.5868 -1.27348 0
85.1636 -8.46882 0
87.0457 8.08907 0
85.1263 0.469547 0
77.6692 1.66117 0
79.4168 7.99382 0
78.3583 -7.07349 0
79.1179 -2.31231 0
76.8119 -1.45732 0
74.4845 -0.22032 0
75.9989 5.82142 0
77.9835 1.88759 0
77.8248 -1.78713 0
74.6287 -4.62685 0
91.4751 -5.41864 0
88.1878 -0.66464 0
87.7706 0.794932 0
91.9137 4.51837 0
77.9054 -0.813941 0
77.8745 -0.0440577 0
77.861 0.148425 0
78.8398 0.755625 0
82.8914 0.737741 0
82.5209 4.10709 0
81.013 -1.989 0
84.0703 -1.74777 0
81.4466 4.89608 0
84.3441 8.31071 0
83.1792 -8.68649 0
82.3358 -1.92017 0
86.3482 1.61511 0
87.4287 5.04127 0
85.9993 -2.79725 0
87.1359 -0.0434892 0
90.2716 -0.255425 0
92.7505 -1.34142 0
92.5761 0.533895 0
89.4821 0.0299696 0
90.3978 0.00190083 0
91.9614 0.577134 0
91.7344 -0.562752 0
90.5642 0.0401289 0
78.8987 -1.44525 0
78.371 -0.572703 0
78.2814 1.23563 0
79.0647 0.948436 0
78.1297 1.22382 0
77.8698 0.239443 0
77.8536 -0.107102 0
78.0617 -1.12449 0
89.1848 0.961447 0
90.4167 1.90076 0
89.5035 -1.15598 0
89.6973 -0.172844 0
75.8439 -0.958096 0
77.8257 -0.155023 0
77.405 -0.43906 0
77.8385 -0.373146 0
77.8394 0.205442 0
77.8147 0.966298 0
91.0097 0.997752 0
90.161 0.156369 0
90.3389 -0.00332537 0
90.7188 -1.07964 0
81.4738 -0.0411933 0
80.7201 -2.82419 0
81.7673 1.80501 0
80.4929 0.44827 0
77.6757 4.03875 0
77.1363 7.31022 0
76.8956 -6.25283 0
78.1539 -3.22201 0
78.6611 -2.10779 0
77.4183 -2.22752 0
77.7574 4.63304 0
78.1003 2.22242 0
90.5735 0.0512675 0
90.3206 0.144242 0
90.4893 -0.051028 0
91.4633 0.0919205 0
79.561 -5.42022 0
80.6352 -5.25906 0
80.2335 4.63869 0
80.7386 8.531 0
78.9221 -3.97678 0
80.0883 -2.31326 0
79.9191 3.11673 0
79.1201 1.53453 0
90.1916 1.17097 0
89.6244 0.143222 0
89.8856 -0.0102837 0
89.7443 -1.05062 0
77.2195 1.01174 0
77.8335 0.030228 0
90.4078 -0.057237 0
91.0648 -0.355043 0
90.7707 0.248189 0
90.2223 0.0384324 0
78.7136 -0.954798 0
78.2555 -1.32982 0
79.0035 1.74026 0
78.1538 0.735346 0
77.8802 -0.146385 0
78.0834 -0.696944 0
77.9282 0.314912 0
77.856 0.136237 0
73.9607 1.7108 0
76.8434 1.52151 0
86.7544 -3.16227 0
90.0754 -6.38406 0
91.0317 5.84044 0
86.4658 2.28319 0
76.6744 -2.30761 0
74.5903 -2.89445 0
88.891 0.159283 0
89.1669 0.895794 0
88.1324 0.0752079 0
88.7829 0.851905 0
89.1816 -0.873615 0
89.0319 -0.142606 0
88.524 -0.709912 0
88.4589 -0.0132945 0
90.0599 -0.218303 0
90.1634 -0.630282 0
90.0122 0.396764 0
89.7609 0.00686449 0
77.8398 0.179435 0
77.6265 0.537375 0
76.3431 0.452272 0
74.0566 0.84437 0
77.7562 -0.248152 0
77.8263 -0.169881 0
77.3046 0.274856 0
77.2228 -0.747533 0
92.5842 -2.78385 0
89.4347 -1.76473 0
90.4159 2.24334 0
92.7373 1.64252 0
77.9807 -0.0638118 0
78.0676 -0.365754 0
77.8771 0.0516501 0
78.2318 0.260401 0
89.4123 -0.208499 0
89.423 -0.541367 0
89.459 0.362242 0
89.0397 0.116317 0
87.9255 0.166564 0
88.1172 0.531275 0
88.1301 -0.619829 0
88.0273 -0.150179 0
78.3797 -0.89761 0
79.2446 -2.13054 0
78.7061 1.61063 0
78.3532 1.27121 0
79.0047 2.87715 0
77.4747 1.84756 0
78.0162 -1.91982 0
78.6411 -2.78837 0
90.9489 -0.545355 0
91.8912 0.293785 0
92.0637 -0.285777 0
91.3725 0.587087 0
77.6117 -1.14543 0
77.7227 -1.36203 0
77.7601 1.07992 0
77.242 1.30291 0
87.9225 0.547749 0
87.6171 0.162635 0
87.6845 -0.102187 0
87.8571 -0.466206 0
84.8819 4.27349 0
86.8638 7.1439 0
86.3545 -8.41008 0
85.9154 -3.35361 0
75.0653 -3.41709 0
77.3977 -3.50839 0
84.5099 -3.06602 0
85.1421 -1.09906 0
83.5227 0.453716 0
86.7955 3.11902 0
74.6462 4.6165 0
76.5854 2.72746 0
88.722 -0.0515747 0
88.8945 -0.552122 0
88.7757 0.366046 0
88.6826 0.100541 0
88.6167 -0.372096 0
88.403 -1.52422 0
88.9547 2.10276 0
87.9805 0.274066 0
82.9029 1.3965 0
81.1923 0.350423 0
82.2926 -0.335649 0
82.9358 -3.11277 0
90.7259 0.323411 0
91.0009 0.863755 0
91.1634 -0.940778 0
91.0844 -0.0513116 0
81.9436 -3.83123 0
83.026 -1.8388 0
82.2553 2.71092 0
84.7654 5.99319 0
87.4803 0.32928 0
87.3524 0.0622062 0
87.5491 -0.100111 0
87.4616 -0.341972 0
88.1445 -0.186862 0
88.3309 -0.00815718 0
88.3001 0.103183 0
88.102 0.436088 0
79.7694 0.496116 0
79.5323 1.30157 0
79.7834 -1.14631 0
80.6053 -0.31755 0
81.253 2.8247 0
79.6824 1.94727 0
79.0681 -2.8314 0
78.2591 -2.85577 0
90.3118 -0.489157 0
90.0617 -0.282114 0
89.8886 0.380186 0
90.8162 0.637748 0
79.6515 3.8424 0
80.1628 2.56635 0
79.1644 -0.82272 0
79.0032 -0.292149 0
78.8524 0.264806 0
79.5371 0.888142 0
76.4624 -0.871721 0
77.449 -1.34424 0
91.9537 -3.68841 0
89.4896 -2.08497 0
88.9597 3.77367 0
92.3427 3.7537 0
77.8435 -0.864293 0
77.8762 -0.141488 0
77.8125 0.199522 0
77.9166 0.843281 0
78.168 0.0875231 0
78.185 0.623652 0
78.3283 -0.34392 0
78.4669 -0.0205876 0
75.3045 -0.267373 0
72.9704 0.151181 0
84.8849 3.22655 0
88.9124 2.99292 0
87.6163 -2.52457 0
88.2169 -4.99313 0
77.4791 2.06166 0
77.0527 1.14794 0
77.8552 -0.0249022 0
77.6209 -0.0491927 0
80.1705 6.8282 0
78.1338 4.04962 0
79.8422 -4.29412 0
78.8321 -8.09469 0
77.3081 0.783976 0
77.7432 0.424003 0
90.046 0.527809 0
90.3948 1.15107 0
90.0742 -1.05155 0
90.0341 -0.204655 0
87.703 -0.121529 0
87.9402 -0.0823454 0
87.9089 0.0704451 0
87.7794 0.403863 0
92.4737 0.449611 0
91.3358 1.40135 0
91.3713 -0.567966 0
92.6118 -0.711874 0