# vtk DataFile Version 3.0
Unstructured Grid for Triangles
ASCII
DATASET UNSTRUCTURED_GRID
POINTS 29612 DOUBLE
-2.72397e-05 1.23686e-06 0
-2.95789e-05 9.5838e-07 0
-2.77865e-05 -3.1235e-07 0
0.0002024 5e-05 0
0.000203975 4.9875e-05 0
0.000205 5e-05 0
0.000203975 -4.9875e-05 0
0.0002024 -5e-05 0
0.000205 -5e-05 0
0.00020295 4.975e-05 0
0.00020295 -4.975e-05 0
0.000201925 4.9625e-05 0
0.000201925 -4.9625e-05 0
-5.29747e-05 -4.79887e-05 0
-5.5e-05 -5e-05 0
-5.24e-05 -5e-05 0
-5.05983e-05 -4.84325e-05 0
-4.98e-05 -5e-05 0
-4.72e-05 -5e-05 0
-4.83864e-05 -4.87761e-05 0
-4.46e-05 -5e-05 0
-4.59e-05 -4.84239e-05 0
-4.29453e-05 -4.24878e-05 0
-4.47486e-05 -4.20717e-05 0
-4.41829e-05 -4.36609e-05 0
-5.12578e-05 -4.62101e-05 0
-4.93077e-05 -4.53594e-05 0
-5.0706e-05 -4.39006e-05 0
-4.19243e-05 -4.77545e-05 0
-4.40307e-05 -4.71837e-05 0
-4.3691e-05 -4.86724e-05 0
-5.16129e-05 -4.20948e-05 0
-4.95355e-05 -4.15432e-05 0
-5.11646e-05 -4.0128e-05 0
-3.94697e-05 -4.81197e-05 0
-4.06302e-05 -4.55143e-05 0
-5.37257e-05 -3.88197e-05 0
-5.31099e-05 -4.07297e-05 0
-5.23982e-05 -3.88328e-05 0
-3.70063e-05 -4.72956e-05 0
-3.68e-05 -5e-05 0
-3.5308e-05 -4.85302e-05 0
-5.072e-05 -3.7867e-05 0
-4.85506e-05 -3.83975e-05 0
-4.90949e-05 -3.59622e-05 0
-3.37127e-05 -4.84331e-05 0
-3.16e-05 -5e-05 0
-3.26495e-05 -4.7415e-05 0
-5.5e-05 -3.5e-05 0
-5.31201e-05 -3.70361e-05 0
-5.28367e-05 -3.46817e-05 0
-3.63898e-05 -4.48809e-05 0
-3.83315e-05 -4.60336e-05 0
-3.26269e-06 -4.15503e-05 0
-5.99662e-06 -4.09556e-05 0
-5.46944e-06 -4.29488e-05 0
-5.29747e-05 4.79887e-05 0
-5.5e-05 5e-05 0
-5.5e-05 4.75e-05 0
-5.5e-05 4.5e-05 0
-5.34834e-05 4.29171e-05 0
-5.26943e-05 4.42611e-05 0
-5.34026e-05 4.60176e-05 0
-5.31099e-05 4.07297e-05 0
-5.11672e-05 4.01178e-05 0
-5.16129e-05 4.20948e-05 0
-5.24e-05 5e-05 0
-5.05983e-05 4.84325e-05 0
-5.31201e-05 3.70361e-05 0
-5.072e-05 3.7867e-05 0
-5.23982e-05 3.88328e-05 0
-4.8341e-05 4.69132e-05 0
-4.83679e-05 4.87539e-05 0
-5.28367e-05 3.46817e-05 0
-5.5e-05 3.25e-05 0
-5.25657e-05 3.28474e-05 0
-4.98e-05 5e-05 0
-5.30382e-05 3.125e-05 0
-4.19243e-05 4.77545e-05 0
-4.40015e-05 4.7335e-05 0
-4.25917e-05 4.63678e-05 0
-4.35138e-05 2.62661e-05 0
-4.14982e-05 2.74462e-05 0
-4.35654e-05 2.85217e-05 0
-4.59e-05 4.84239e-05 0
-4.36852e-05 4.87027e-05 0
-4.46e-05 5e-05 0
-5.33308e-05 2.92503e-05 0
-5.5e-05 2.75e-05 0
-5.23377e-05 2.76953e-05 0
-4.25282e-05 4.46352e-05 0
-4.09368e-05 4.35728e-05 0
-4.06302e-05 4.55143e-05 0
0.0002009 4.95e-05 0
0.0001998 5e-05 0
0.000199875 4.9375e-05 0
0.00019885 4.925e-05 0
0.0001972 5e-05 0
0.000197825 4.9125e-05 0
0.0001968 4.9e-05 0
0.000195775 4.8875e-05 0
0.0001946 5e-05 0
0.00019475 4.875e-05 0
0.000193725 4.8625e-05 0
0.000192 5e-05 0
0.0001927 4.85e-05 0
0.000191675 4.8375e-05 0
0.00019065 4.825e-05 0
0.0001894 5e-05 0
0.000189625 4.8125e-05 0
0.0001886 4.8e-05 0
0.0001868 5e-05 0
0.000187575 4.7875e-05 0
0.00018655 4.775e-05 0
0.000185515 4.8575e-05 0
0.0001842 5e-05 0
0.0001845 4.75e-05 0
0.000185525 4.7625e-05 0
0.000182564 4.829e-05 0
0.0001816 5e-05 0
0.00018245 4.725e-05 0
0.000183475 4.7375e-05 0
0.000181425 4.7125e-05 0
0.000180295 4.82657e-05 0
0.000179 5e-05 0
0.000179375 4.6875e-05 0
0.0001804 4.7e-05 0
0.000178168 4.80619e-05 0
0.0001764 5e-05 0
0.000177325 4.6625e-05 0
0.00017835 4.675e-05 0
0.000176428 4.76631e-05 0
0.0001763 4.65e-05 0
0.0001738 5e-05 0
0.0001751 4.84164e-05 0
0.000175275 4.6375e-05 0
0.000174025 4.75632e-05 0
0.0001712 5e-05 0
0.000172615 4.78449e-05 0
0.0001722 4.6e-05 0
0.000173225 4.6125e-05 0
0.00017015 4.575e-05 0
0.000171243 4.7381e-05 0
0.000169554 4.79999e-05 0
0.0001686 5e-05 0
0.000167507 4.79751e-05 0
0.000168498 4.64861e-05 0
0.000166 5e-05 0
0.00016558 4.71459e-05 0
0.000167135 4.62887e-05 0
0.0001681 4.55e-05 0
0.00016605 4.525e-05 0
0.000167075 4.5375e-05 0
0.000164059 4.61599e-05 0
0.00016394 4.79552e-05 0
0.000162881 4.6615e-05 0
0.000162975 4.4875e-05 0
0.000165025 4.5125e-05 0
0.000164 4.5e-05 0
0.000161754 4.58641e-05 0
0.000161722 4.78101e-05 0
0.000159956 4.58294e-05 0
0.000160925 4.4625e-05 0
0.00016195 4.475e-05 0
0.000157667 4.60322e-05 0
0.000158875 4.4375e-05 0
0.000159194 4.80155e-05 0
0.0001599 4.45e-05 0
0.00015785 4.425e-05 0
0.000155808 4.56757e-05 0
0.000155647 4.76701e-05 0
0.000154059 4.66642e-05 0
0.000153756 4.50083e-05 0
0.000154839 4.50446e-05 0
0.000156825 4.4125e-05 0
0.000151954 4.80508e-05 0
0.000154052 4.8477e-05 0
0.000153 5e-05 0
0.000154775 4.3875e-05 0
0.000152142 4.56625e-05 0
0.000152821 4.45753e-05 0
0.00015375 4.375e-05 0
0.0001504 5e-05 0
0.000149644 4.85168e-05 0
0.000151787 4.43178e-05 0
0.000152725 4.3625e-05 0
0.000150675 4.3375e-05 0
0.0001517 4.35e-05 0
0.000148119 4.50887e-05 0
0.000148072 4.75757e-05 0
0.000146584 4.63516e-05 0
0.000150008 4.6396e-05 0
0.000149351 4.4543e-05 0
0.00015061 4.46252e-05 0
0.0001476 4.3e-05 0
0.000148625 4.3125e-05 0
0.000146492 4.82975e-05 0
0.000144888 4.73562e-05 0
0.000146676 4.44259e-05 0
0.000145255 4.53656e-05 0
0.000145652 4.38669e-05 0
0.000141401 4.79821e-05 0
0.0001426 5e-05 0
0.00014 5e-05 0
0.000144374 4.38862e-05 0
0.00014555 4.275e-05 0
0.0001435 4.25e-05 0
0.000144525 4.2625e-05 0
0.000142746 4.38121e-05 0
0.000141288 4.43191e-05 0
0.000141707 4.32778e-05 0
0.00013921 4.38992e-05 0
0.000140355 4.5932e-05 0
0.000138302 4.5922e-05 0
0.000142912 4.58869e-05 0
0.000140592 4.30037e-05 0
0.00014145 4.225e-05 0
0.000136458 4.5869e-05 0
0.000137106 4.4063e-05 0
0.0001394 4.2e-05 0
0.000138259 4.28915e-05 0
0.000137484 4.77094e-05 0
0.000139166 4.78902e-05 0
0.00013586 4.78984e-05 0
0.000133449 4.78649e-05 0
0.000134717 4.61848e-05 0
0.000137256 4.25134e-05 0
0.000135323 4.24541e-05 0
0.000136325 4.1625e-05 0
0.000136122 4.2876e-05 0
0.000131206 4.47284e-05 0
0.000133168 4.56738e-05 0
0.000131773 4.65243e-05 0
0.000134756 4.40343e-05 0
0.000132747 4.36463e-05 0
0.000133483 4.26786e-05 0
0.000131081 4.1867e-05 0
0.000132382 4.22815e-05 0
0.000131507 4.3122e-05 0
0.000131059 4.80123e-05 0
0.00013325 4.125e-05 0
0.00012915 4.075e-05 0
0.00012982 4.18199e-05 0
0.000128915 4.26216e-05 0
0.000126366 4.47574e-05 0
0.000127331 4.30908e-05 0
0.000128781 4.44872e-05 0
0.000125336 4.28376e-05 0
0.000130218 4.31077e-05 0
0.000127894 4.16344e-05 0
0.000124774 4.69608e-05 0
0.000127668 4.64148e-05 0
0.000126591 4.8331e-05 0
0.000126722 4.18415e-05 0
0.000125768 4.11931e-05 0
0.000124326 4.13546e-05 0
0.00012505 4.025e-05 0
0.000122408 4.50118e-05 0
0.000120276 4.47432e-05 0
0.00012139 4.32235e-05 0
0.000124336 4.44132e-05 0
0.000123056 4.27595e-05 0
0.000122977 4.09049e-05 0
0.00012185 4.69217e-05 0
0.000122676 4.85947e-05 0
0.000120525 4.86094e-05 0
0.000121479 4.13153e-05 0
0.000119547 4.24221e-05 0
0.000120249 4.07448e-05 0
0.000119925 3.9625e-05 0
0.000119346 4.06114e-05 0
0.000117479 4.47279e-05 0
0.000114726 4.45259e-05 0
0.00011571 4.27814e-05 0
0.000119443 4.66611e-05 0
0.000117447 4.21596e-05 0
0.000118421 4.0752e-05 0
0.000117409 4.04437e-05 0
0.000116775 4.70073e-05 0
0.0001179 4.855e-05 0
0.000115473 4.84802e-05 0
0.00011685 3.925e-05 0
0.000117875 3.9375e-05 0
0.000115454 4.00551e-05 0
0.0001148 3.9e-05 0
0.000115825 3.9125e-05 0
0.000111704 4.23398e-05 0
0.000113786 4.26731e-05 0
0.000112589 4.43871e-05 0
0.000113234 4.06671e-05 0
0.000114754 4.13371e-05 0
0.0001106 4.42326e-05 0
0.000109703 4.24261e-05 0
0.00011275 3.875e-05 0
0.000113775 3.8875e-05 0
0.000110211 4.80875e-05 0
0.000108244 4.71951e-05 0
0.000109312 4.58413e-05 0
0.000111755 3.99116e-05 0
0.00010944 3.92972e-05 0
0.000110415 4.05876e-05 0
0.000108839 4.07536e-05 0
0.000106472 4.76905e-05 0
0.000107274 4.57868e-05 0
0.000108011 3.92415e-05 0
0.000106885 4.04365e-05 0
0.000106625 3.88708e-05 0
0.000105286 4.19254e-05 0
0.000105055 3.95469e-05 0
0.000104215 4.39764e-05 0
0.000106346 4.40629e-05 0
0.000100945 4.51249e-05 0
0.000102825 4.5614e-05 0
0.000101189 4.68452e-05 0
0.000107625 3.8125e-05 0
0.000105575 3.7875e-05 0
0.0001066 3.8e-05 0
0.000103352 4.76905e-05 0
0.000101803 4.8465e-05 0
0.000103685 3.89398e-05 0
0.00010245 3.8825e-05 0
0.000103525 3.7625e-05 0
0.000101092 3.99779e-05 0
0.000101267 3.82619e-05 0
0.000101382 4.2025e-05 0
0.000103187 4.05286e-05 0
0.000103359 4.24605e-05 0
9.87383e-05 4.5447e-05 0
9.99411e-05 4.35161e-05 0
9.744e-05 4.33145e-05 0
0.00010045 3.725e-05 0
0.000101475 3.7375e-05 0
9.70845e-05 4.65215e-05 0
9.52614e-05 4.67664e-05 0
9.61768e-05 4.49944e-05 0
9.9729e-05 3.87704e-05 0
9.78901e-05 3.9598e-05 0
9.85823e-05 3.81492e-05 0
9.62289e-05 3.93709e-05 0
9.74259e-05 3.81279e-05 0
9.7375e-05 3.6875e-05 0
9.63045e-05 3.76631e-05 0
9.58e-05 5e-05 0
9.32e-05 5e-05 0
9.47542e-05 4.8457e-05 0
9.49675e-05 3.85246e-05 0
9.36214e-05 3.89472e-05 0
9.40006e-05 3.74906e-05 0
9.66411e-05 4.12573e-05 0
9.44241e-05 4.07079e-05 0
9.03569e-05 4.24993e-05 0
9.21701e-05 4.02409e-05 0
9.27439e-05 4.27744e-05 0
8.89795e-05 4.09067e-05 0
9.03071e-05 4.0248e-05 0
9.25447e-05 3.77721e-05 0
9.3275e-05 3.6375e-05 0
9.07708e-05 3.87127e-05 0
9.11303e-05 3.70839e-05 0
9.11933e-05 4.55145e-05 0
9.30678e-05 4.73279e-05 0
9.11886e-05 4.82603e-05 0
8.87724e-05 3.88076e-05 0
8.99595e-05 3.75116e-05 0
9.02e-05 3.6e-05 0
8.89241e-05 3.6954e-05 0
8.36977e-05 4.59472e-05 0
8.36223e-05 4.83578e-05 0
8.20467e-05 4.74142e-05 0
8.71227e-05 4.03557e-05 0
8.61e-05 3.55e-05 0
8.68368e-05 3.65714e-05 0
8.5484e-05 3.6588e-05 0
8.47735e-05 4.02845e-05 0
8.23121e-05 4.21599e-05 0
8.26582e-05 3.98147e-05 0
8.46943e-05 4.2454e-05 0
8.38832e-05 3.78613e-05 0
8.35569e-05 3.63808e-05 0
8.44098e-05 3.6291e-05 0
8.5075e-05 3.5375e-05 0
8.51465e-05 4.77163e-05 0
8.3025e-05 3.5125e-05 0
8.22824e-05 3.68659e-05 0
8.1446e-05 3.57362e-05 0
8.05884e-05 3.71794e-05 0
7.53471e-05 4.77524e-05 0
7.38313e-05 4.73927e-05 0
7.39102e-05 4.61526e-05 0
7.9826e-05 3.58588e-05 0
7.88607e-05 3.76287e-05 0
7.81733e-05 3.57987e-05 0
8.16783e-05 3.84471e-05 0
8.07975e-05 4.04095e-05 0
7.52138e-05 4.04775e-05 0
7.67682e-05 4.17043e-05 0
7.49617e-05 4.21803e-05 0
7.52903e-05 3.84008e-05 0
7.38293e-05 3.93136e-05 0
[...]
CELL_DATA 58684
VECTORS velocity DOUBLE
74.2206 0.337068 0
87.7014 -3.25095e-05 0
87.677 0.000158213 0
87.704 0.000769573 0
87.6778 -0.00133218 0
87.7093 -0.00230965 0
87.6833 0.00258827 0
77.8778 -0.0015919 0
77.8917 -0.0237393 0
77.9966 -0.00274096 0
78.1084 -0.0052323 0
78.1707 -0.407248 0
77.9248 -0.107383 0
78.2505 -0.134476 0
77.9042 -0.180858 0
78.4484 -0.17031 0
77.8784 -0.109189 0
78.8085 -0.157343 0
77.9534 -0.311739 0
79.3178 -0.11156 0
77.8909 -0.11203 0
78.7778 -0.369282 0
85.3519 -2.16585 0
77.8615 0.0118391 0
77.8644 0.0498333 0
77.8609 0.0241996 0
77.9009 0.138277 0
77.8913 0.0226602 0
77.8959 0.183739 0
77.9938 0.0481976 0
77.888 0.14129 0
77.9497 0.0324393 0
77.8515 0.140196 0
78.3215 0.162387 0
78.0342 1.13078 0
78.176 0.0680639 0
77.8995 0.174218 0
78.3992 0.353969 0
87.7105 -0.0027886 0
87.713 -0.000299004 0
87.7201 -0.0028917 0
87.721 -0.00481836 0
87.7223 -0.000377344 0
87.7284 -0.00300702 0
87.7297 -0.0061884 0
87.7298 -0.00544365 0
87.7313 -0.000839878 0
87.7363 -0.00606735 0
87.7359 -0.00685564 0
87.7352 -0.000794677 0
87.7416 -0.00653686 0
87.7409 -0.00886184 0
87.7404 -0.00744798 0
87.7401 -0.00159852 0
87.7437 -0.0084113 0
87.7426 -0.0083324 0
87.7403 -0.00151155 0
87.7465 -0.0106075 0
87.7447 -0.0118219 0
87.7436 -0.00822609 0
87.7436 -0.00140478 0
87.7476 -0.0154812 0
87.744 -0.0110332 0
87.7464 -0.00240015 0
87.7503 -0.0176367 0
87.7477 -0.0184931 0
87.7476 -0.013391 0
87.7458 -0.00209855 0
87.7476 -0.0204263 0
87.7474 -0.0143961 0
87.743 -0.00173343 0
87.7481 -0.0228085 0
87.7483 -0.0187164 0
87.751 -0.0255472 0
87.7412 -0.00227464 0
87.7457 -0.0197308 0
87.7445 -0.0122457 0
87.7382 -0.00351669 0
87.7443 -0.029407 0
87.7404 -0.0233337 0
87.7428 -0.0247771 0
87.7351 -0.00439621 0
87.733 -0.0146808 0
87.7366 -0.0296858 0
87.7313 -0.0199034 0
87.7328 -0.0277289 0
87.743 -0.0356209 0
87.7421 -0.0442562 0
87.7274 -0.0295754 0
87.7346 -0.0402137 0
87.7332 -0.0362805 0
87.7351 -0.0498351 0
87.7209 -0.0391239 0
87.7284 -0.0363305 0
87.7315 -0.0525668 0
87.7248 -0.0469667 0
87.7118 -0.0386812 0
87.7283 -0.0561902 0
87.7269 -0.0603574 0
87.7068 -0.042327 0
87.7044 -0.0558478 0
87.7173 -0.0529008 0
87.6916 -0.018206 0
87.7155 -0.0620431 0
87.709 -0.0575458 0
87.7133 -0.0654873 0
87.6801 -0.0121655 0
87.7138 -0.0688632 0
87.7149 -0.078201 0
87.6742 -0.0434855 0
87.6827 -0.0453697 0
87.6901 -0.0613323 0
87.6956 -0.081466 0
87.6634 -0.0330149 0
87.6879 -0.0727378 0
87.671 -0.0467164 0
87.6345 -0.00608905 0
87.6914 -0.0831554 0
87.6901 -0.0978182 0
87.6817 -0.0841627 0
87.6569 -0.0654987 0
87.648 -0.047456 0
87.6835 -0.0960841 0
87.6494 -0.065654 0
87.6758 -0.100388 0
87.6378 -0.039997 0
87.6723 -0.0911547 0
87.6233 -0.0375268 0
87.675 -0.101927 0
87.6767 -0.115451 0
87.6348 -0.0691257 0
87.6603 -0.10075 0
87.6192 -0.0483197 0
87.6665 -0.122617 0
87.614 -0.038993 0
87.6711 -0.123606 0
87.6707 -0.136124 0
87.6475 -0.0974943 0
87.6461 -0.115213 0
87.6557 -0.112281 0
87.6623 -0.12531 0
87.5992 -0.0497236 0
87.6692 -0.140671 0
87.6793 -0.156368 0
87.647 -0.101999 0
87.6158 -0.0798001 0
87.6607 -0.134369 0
87.6684 -0.153812 0
87.6015 -0.0333083 0
87.6829 -0.165052 0
87.6924 -0.184066 0
87.6659 -0.115855 0
87.6296 -0.0966943 0
87.6807 -0.15872 0
87.6916 -0.18059 0
87.6151 -0.0356941 0
87.7045 -0.208727 0
87.722 -0.223537 0
87.695 -0.156466 0
87.7102 -0.182583 0
87.7138 -0.165128 0
87.7318 -0.231999 0
87.6746 -0.0636513 0
87.7319 -0.220482 0
87.762 -0.224556 0
87.705 -0.0721088 0
87.7981 -0.263393 0
87.8063 -0.243588 0
87.7808 -0.157908 0
87.8026 -0.119188 0
87.8053 -0.272124 0
87.8297 -0.2985 0
87.7777 -0.061421 0
87.8658 -0.303407 0
87.8969 -0.309737 0
87.8301 -0.223047 0
87.8629 -0.141347 0
87.8894 -0.183748 0
87.925 -0.354625 0
87.9155 -0.120711 0
87.965 -0.331563 0
87.9853 -0.325819 0
88.0093 -0.379994 0
87.9358 -0.00651904 0
88.088 -0.377564 0
87.9845 -0.29278 0
88.0772 -0.263315 0
88.1372 -0.305617 0
88.1318 -0.418299 0
88.1768 -0.421055 0
88.0352 -0.0951786 0
88.2065 -0.407363 0
88.2344 -0.469519 0
88.2447 -0.450882 0
88.3039 -0.102126 0
88.222 -0.356677 0
88.3895 -0.515718 0
88.4208 -0.385862 0
88.3445 -0.325277 0
88.4407 -0.540016 0
88.4304 -0.536348 0
88.2955 -0.0922399 0
88.5263 -0.590151 0
88.5614 -0.552953 0
88.7096 -0.103325 0
88.6548 -0.600325 0
88.5005 -0.42421 0
88.7381 -0.378163 0
88.8043 -0.484858 0
88.7036 -0.541666 0
88.7379 -0.647275 0
88.7685 -0.228586 0
88.9049 -0.615848 0
88.8645 -0.713844 0
89.0525 -0.714416 0
88.9779 -0.0102974 0
88.9922 -0.586794 0
89.0647 -0.735381 0
88.8764 -0.181017 0
89.1296 -0.771995 0
89.2016 -0.440079 0
89.1758 -0.807481 0
89.3576 -0.242979 0
89.3402 -0.684872 0
89.3111 -0.807497 0
89.2174 -0.123747 0
89.4541 -0.830942 0
89.6303 -0.801923 0
89.4648 -0.688273 0
89.5026 -0.411149 0
89.6684 -0.919789 0
89.6542 -0.358254 0
89.8097 -0.0619412 0
89.6056 -0.723416 0
89.7856 -0.90642 0
89.871 -0.974307 0
89.8792 -0.303119 0
90.0096 -0.837358 0
90.1686 -0.914068 0
89.9556 -0.104248 0
90.315 -0.887062 0
90.2316 -0.991166 0
90.0843 -0.736938 0
90.1408 -0.355911 0
90.2581 -0.414668 0
90.3865 -0.994519 0
90.3163 -0.0052109 0
90.4925 -1.06095 0
90.6269 -1.00677 0
90.583 -1.06032 0
90.5663 -0.231387 0
90.6932 -0.866019 0
90.9436 -0.877377 0
90.5406 -0.00333773 0
91.0311 -1.04343 0
91.2149 -0.889313 0
90.8626 -0.641949 0
90.6978 -0.263835 0
91.2063 -1.00413 0
90.8618 -0.327647 0
90.6906 -0.0141112 0
91.1466 -0.675676 0
91.4705 -0.915413 0
91.6383 -0.855192 0
90.8655 -0.0652681 0
91.605 -0.581267 0
91.7292 -0.765317 0
90.7424 0.035079 0
91.873 -0.757765 0
92.0647 -0.634156 0
91.706 -0.211605 0
90.5121 0.0100067 0
92.2301 -0.418631 0
91.4043 0.206693 0
91.6369 0.313395 0
92.1121 -0.270021 0
91.8984 -0.0144081 0
92.5719 -0.0407904 0
90.6417 0.373158 0
92.5534 -0.142485 0
92.1318 0.422254 0
92.7716 0.488885 0
90.5557 0.109202 0
92.7429 1.18724 0
92.5218 1.41864 0
89.2081 0.199075 0
92.9649 0.877022 0
92.8773 1.35567 0
90.5577 1.47276 0
90.3082 0.704144 0
91.8228 1.11193 0
92.7838 1.88921 0
89.4572 0.3305 0
92.3052 2.77841 0
92.9636 2.12338 0
92.9792 2.35185 0
88.7013 1.41322 0
91.3333 2.90907 0
92.3644 3.16466 0
88.6815 0.232821 0
92.1815 3.66595 0
91.8315 3.55153 0
90.8757 5.1786 0
86.3993 0.398107 0
92.0087 4.87276 0
90.0219 3.51669 0
88.1601 1.56362 0
87.7726 2.98137 0
91.776 5.38038 0
90.6472 5.83518 0
86.8391 0.608796 0
90.7184 6.66011 0
87.6842 0.00262817 0
87.6862 0.000294324 0
87.6919 0.00217578 0
87.6924 0.00454027 0
87.6931 0.000340699 0
87.6988 0.00276261 0
87.6997 0.00577247 0
87.6997 0.00525881 0
87.7009 0.000819841 0
87.7051 0.00530629 0
87.7047 0.0057787 0
87.7033 0.00075229 0
87.7091 0.0061576 0
87.7082 0.00834317 0
87.7076 0.00700798 0
87.7069 0.00156531 0
87.7103 0.00836029 0
87.7092 0.0083869 0
87.7068 0.00149948 0
87.7128 0.0100776 0
87.7111 0.0114137 0
87.7151 0.0149369 0
87.7099 0.0080203 0
87.7144 0.00885596 0
87.7165 0.0152792 0
87.7101 0.0110967 0
87.7142 0.0181032 0
87.7139 0.0133273 0
87.717 0.0190035 0
87.7122 0.0102413 0
87.7138 0.0147619 0
87.7181 0.0218045 0
87.7126 0.0104505 0
87.7182 0.025773 0
87.7153 0.02705 0
87.7152 0.0190272 0
87.7126 0.0124942 0
87.7128 0.0202556 0
87.7136 0.0207451 0
87.7117 0.0126156 0
87.7133 0.0354817 0
87.7032 0.0154831 0
87.7091 0.0241262 0
87.7088 0.0172781 0
87.7056 0.0306721 0
87.7128 0.0364485 0
87.701 0.0205365 0
87.7057 0.0321392 0
87.7102 0.0373799 0
87.7059 0.0441592 0
87.6955 0.0242931 0
87.6982 0.0301212 0
87.7056 0.0409495 0
87.7083 0.0551667 0
87.6889 0.0281519 0
87.7029 0.0442576 0
87.7052 0.0576762 0
87.6769 0.0304357 0
87.6838 0.039523 0
87.7003 0.0617298 0
87.6942 0.0625424 0
87.6738 0.0394891 0
87.6729 0.0283535 0
87.6781 0.0565984 0
87.68 0.0136069 0
87.6874 0.0663568 0
87.6898 0.0805768 0
87.6805 0.0665799 0
87.6698 0.0388353 0
87.683 0.0807893 0
87.6815 0.0720027 0
87.6412 0.033852 0
87.6664 0.0631332 0
87.6682 0.0750109 0
87.6676 0.0834406 0
87.6487 0.018806 0
87.6538 0.0604144 0
87.668 0.0979817 0
87.6491 0.0486236 0
87.6647 0.0866419 0
87.659 0.0999316 0
87.6397 0.072255 0
87.6182 0.0310301 0
87.6497 0.0884302 0
87.6576 0.100715 0
87.6062 0.0220163 0
87.6552 0.109306 0
87.6282 0.0806019 0
87.6395 0.0914769 0
87.6256 0.0654229 0
87.6517 0.114837 0
87.65 0.135424 0
87.5908 0.0379136 0
87.6191 0.0914714 0
87.6548 0.141724 0
87.6234 0.104938 0
87.5973 0.0469254 0
87.6504 0.137045 0
87.6434 0.139891 0
87.5796 0.0354841 0
87.5971 0.0627406 0
87.6332 0.124561 0
87.6543 0.160243 0
87.6008 0.083145 0
87.6547 0.155464 0
87.6559 0.165153 0
87.5996 0.0595169 0
87.6216 0.10275 0
87.662 0.181564 0
87.6449 0.15332 0
87.5787 0.0463626 0
87.6556 0.173315 0
87.6692 0.188511 0
87.6165 0.0753722 0
87.6542 0.158075 0
87.697 0.219279 0
87.6719 0.169614 0
87.5927 0.0532906 0
87.702 0.20942 0
87.7267 0.24865 0
87.629 0.0715808 0
87.7029 0.200977 0
87.6655 0.0957022 0
87.7199 0.207338 0
87.6594 0.117263 0
87.7545 0.265032 0
87.7786 0.267482 0
87.6804 0.0721817 0
87.7669 0.258752 0
87.8162 0.300164 0
87.7397 0.0789291 0
87.7431 0.216853 0
87.7921 0.254832 0
87.8428 0.305032 0
87.7276 0.0449152 0
87.8415 0.278464 0
87.9205 0.359696 0
87.8907 0.301052 0
87.8186 0.0924068 0
87.946 0.31259 0
87.7901 0.11783 0
87.8393 0.264366 0
87.9461 0.347737 0
88.0348 0.393893 0
88.0391 0.402985 0
87.7965 0.00981035 0
88.1245 0.45742 0
88.132 0.445831 0
88.1432 0.389775 0
88.0736 0.192541 0
88.1678 0.208067 0
88.1637 0.438009 0
87.948 0.119825 0
88.2751 0.492395 0
88.2625 0.481595 0
88.2641 0.430836 0
88.1486 0.123981 0
88.342 0.478096 0
88.4662 0.593681 0
88.3075 0.220086 0
88.2612 0.236607 0
88.4162 0.477067 0
88.5862 0.611067 0
88.1844 0.147814 0
88.6244 0.645072 0
88.6621 0.624006 0
88.4536 0.121327 0
88.8018 0.705917 0
88.8352 0.676485 0
88.8953 0.575969 0
88.6618 0.254094 0
88.6343 0.290087 0
88.8151 0.649979 0
88.5353 0.189025 0
88.9854 0.770443 0
89.0391 0.723379 0
89.0322 0.660823 0
88.7468 0.101035 0
89.2147 0.775812 0
89.2328 0.789902 0
89.0556 0.445626 0
89.3159 0.618679 0
89.0682 0.360017 0
89.2856 0.754366 0
88.9505 0.230927 0
89.4483 0.871608 0
89.4748 0.839907 0
88.9878 0.182619 0
89.539 0.771751 0
89.7301 0.884767 0
89.6385 0.866209 0
89.5015 0.202774 0
89.9402 0.920182 0
89.9844 0.982171 0
89.4671 0.601138 0
89.8696 0.729119 0
89.5207 0.365815 0
90.1803 1.03028 0
89.6985 0.113033 0
90.2449 0.999161 0
90.2391 0.945356 0
89.5124 0.0892966 0
90.1723 0.858584 0
90.5635 1.01073 0
90.6565 1.02097 0
90.1137 0.258879 0
90.7328 0.995741 0
90.7816 1.06212 0
90.0929 0.648205 0
90.7976 0.700608 0
90.2808 0.249954 0
90.9496 1.06179 0
90.3097 0.0921069 0
91.0977 0.991589 0
91.1895 0.978649 0
90.1293 0.06554 0
91.0195 0.810175 0
91.486 0.916224 0
91.6523 0.857173 0
90.5874 0.161088 0
91.4905 0.800463 0
91.7974 0.813957 0
91.114 0.68956 0
91.6079 0.397791 0
90.6821 0.0987951 0
91.5698 0.725685 0
90.7072 0.0351101 0
92.0506 0.715068 0
92.1417 0.572567 0
90.5927 0.0350882 0
91.8641 0.273833 0
92.3036 0.301428 0
92.4999 0.170891 0
90.7386 -0.0992492 0
92.5997 -0.0248868 0
92.6488 -0.15956 0
90.8924 -0.272144 0
92.6684 -0.186787 0
91.8963 -0.637656 0
91.1434 -0.100952 0
90.9479 -0.00689472 0
92.8151 -0.47214 0
92.586 -0.867339 0
93.0196 -1.03962 0
90.6291 -0.00677849 0
92.3166 -1.3174 0
93.0373 -1.77106 0
90.6016 -0.125032 0
92.1463 -1.2833 0
93.0242 -2.31026 0
91.6093 -1.75268 0
90.5875 -0.657087 0
92.8378 -2.65858 0
92.7064 -2.95316 0
91.553 -1.10724 0
91.0303 -3.12979 0
89.0128 -2.58765 0
92.3476 -2.9958 0
89.4167 -0.4026 0
92.3447 -3.94405 0
89.7954 7.26342 0
90.5249 6.48819 0
85.1285 1.92335 0
89.6908 7.2218 0
87.4554 6.61581 0
89.0313 7.85615 0
85.7229 0.755542 0
88.0531 8.06245 0
86.8798 7.93921 0
84.4671 0.962025 0
86.9536 8.46463 0
92.2581 -4.36621 0
89.6576 -0.251992 0
91.9967 -4.71063 0
90.762 -5.1161 0
90.2083 -4.4044 0
88.7757 -0.268611 0
91.006 -5.70383 0
85.6498 7.73712 0
90.3584 -6.98536 0
88.5301 -1.3958 0
90.0367 -6.7516 0
89.1732 -7.71995 0
83.3052 2.36421 0
88.7372 -7.57823 0
89.9447 -4.21882 0
89.2289 -6.86407 0
87.3683 -5.08319 0
86.428 -0.834688 0
88.2912 -6.97453 0
87.4986 -7.38694 0
85.0253 8.16491 0
87.5699 -7.3972 0
87.2619 -0.453068 0
86.5392 -7.7549 0
86.0258 -8.46042 0
85.7458 -0.562173 0
84.9339 -8.60831 0
85.4426 -6.3165 0
83.5664 -0.651706 0
83.9211 -8.7625 0
83.9868 -4.8598 0
85.7072 -3.82319 0
84.4643 -7.50043 0
83.3525 -7.85455 0
86.0219 4.3851 0
82.3904 0.528694 0
85.4282 2.93338 0
84.0778 -0.0738162 0
82.8067 -8.52062 0
84.6485 7.73498 0
82.1155 0.384043 0
84.0746 6.58211 0
81.9396 -8.38604 0
83.6456 -1.71454 0
81.2249 -6.12249 0
84.0704 8.81686 0
80.9925 2.02255 0
83.9703 8.74317 0
81.7414 7.29513 0
81.2809 0.412546 0
82.3783 7.66878 0
81.8348 -6.36899 0
83.153 -0.473667 0
81.0841 -8.51476 0
81.1018 -8.28247 0
82.7522 8.23587 0
80.8234 7.85388 0
80.583 0.0408248 0
81.8875 8.10708 0
80.0139 5.07882 0
80.5859 2.28487 0
80.1597 -8.46421 0
81.0603 -1.09716 0
80.4937 -8.33908 0
79.6973 8.30689 0
79.5319 -7.73336 0
80.1816 -1.07586 0
79.8127 -3.39501 0
78.2686 -7.42976 0
81.2938 -4.10555 0
78.1268 -7.18517 0
79.6713 -0.289195 0
77.2106 -6.86503 0
79.3454 2.86068 0
79.9477 0.460333 0
79.2655 6.97432 0
79.325 0.116046 0
79.0637 8.18405 0
78.7753 7.68133 0
79.0018 0.184757 0
78.0097 6.72218 0
78.7747 0.133387 0
78.5939 -6.42165 0
79.6696 -0.574229 0
79.8199 6.044 0
77.9231 0.73047 0
77.5627 6.31228 0
77.0942 -6.82598 0
79.7828 -0.230206 0
75.4622 -5.8364 0
77.897 -0.433151 0
76.2812 -5.74314 0
78.6081 2.54676 0
77.8579 0.117365 0
79.3119 -5.22534 0
77.8601 -0.109879 0
75.5824 -5.40743 0
76.9669 5.69504 0
76.9794 -4.26693 0
77.8815 -0.237524 0
75.8817 -4.63042 0
77.9733 3.1398 0
75.8225 1.99446 0
76.4631 4.92265 0
77.6669 -0.982743 0
75.7295 -5.13332 0
77.8286 0.395657 0
76.3912 6.64544 0
77.7349 -2.37741 0
77.8594 -0.0821648 0
75.3951 -4.62939 0
76.1181 5.93699 0
77.8548 0.711001 0
76.062 4.63904 0
75.7872 4.57922 0
77.8229 0.374642 0
74.9874 4.07736 0
74.5417 -4.15954 0
77.8514 -0.289345 0
74.2398 -4.15191 0
76.5977 -1.97826 0
77.8609 -0.196695 0
73.6125 -2.82966 0
75.0514 5.07401 0
77.7825 0.616371 0
76.2811 3.24902 0
74.2198 -2.57045 0
77.7692 -0.307152 0
73.5744 -2.34138 0
73.9347 3.73355 0
77.7799 0.262316 0
74.3333 3.51659 0
74.6306 2.86869 0
77.8582 0.0344857 0
73.799 3.05612 0
74.9093 -1.5125 0
77.7214 -0.537031 0
74.2034 -1.33297 0
73.0321 -0.849273 0
77.0768 -0.924931 0
73.0815 -0.719381 0
76.785 0.960001 0
77.8037 0.0763829 0
75.895 2.43465 0
73.578 2.46154 0
77.6809 0.0590705 0
73.1548 1.55446 0
77.4132 -0.235174 0
77.8457 -0.109381 0
73.08 -0.236807 0
73.6027 -0.0931489 0
77.8226 -0.0648205 0
75.8055 0.307683 0
73.7685 0.526699 0
77.833 -0.0608365 0
77.1815 -5.65737 0
77.9301 -0.424878 0
77.8488 0.129056 0
78.0252 6.88419 0
78.9726 -7.73919 0
82.0231 -0.944742 0
80.4144 0.994971 0
81.6532 8.61373 0
77.8058 0.275074 0
74.4997 4.85508 0
73.9733 -2.83808 0
77.8133 -0.19641 0
77.8825 -0.564457 0
77.5548 -3.66818 0
77.9501 0.795862 0
77.9102 0.195474 0
77.8158 -0.000544368 0
73.6478 2.05345 0
79.2841 0.465673 0
78.3798 1.57604 0
78.7052 -1.37255 0
80.2271 -0.68988 0
85.833 -1.26578 0
85.4118 -8.45168 0
87.3056 8.06126 0
85.366 0.467864 0
77.7449 1.66463 0
79.6133 8.0011 0
78.5354 -7.08351 0
79.2389 -2.31168 0
76.8927 -1.45952 0
74.5965 -0.222091 0
76.1534 5.83128 0
78.0641 1.89204 0
77.9026 -1.78938 0
74.768 -4.63499 0
91.7469 -5.35176 0
88.4629 -0.658768 0
88.0407 0.787171 0
92.1826 4.44912 0
77.9453 -0.809048 0
77.8831 -0.0434465 0
77.8733 0.144426 0
78.9302 0.756938 0
83.0945 0.734585 0
82.7256 4.10243 0
81.1803 -1.98761 0
84.2962 -1.74338 0
81.64 4.89593 0
84.5838 8.29839 0
83.4129 -8.68016 0
82.5319 -1.91856 0
86.604 1.60688 0
87.6907 5.01345 0
86.2515 -2.78459 0
87.4016 -0.0422258 0
90.553 -0.251393 0
92.987 -1.28625 0
92.8085 0.49816 0
89.7619 0.029952 0
90.6776 0.00236166 0
92.1865 0.558155 0
91.9727 -0.54089 0
90.8415 0.0407075 0
78.9984 -1.44641 0
78.4373 -0.573475 0
78.3551 1.23696 0
79.1661 0.950022 0
78.1943 1.22545 0
77.8806 0.235 0
77.8572 -0.103602 0
78.1194 -1.12485 0
89.4617 0.94917 0
90.6916 1.86885 0
89.7831 -1.13798 0
89.9782 -0.169454 0
75.9378 -0.959285 0
77.8413 -0.152749 0
77.4544 -0.437695 0
77.8581 -0.36845 0
77.8494 0.20035 0
77.8626 0.962731 0
91.2658 0.928753 0
90.4509 0.144545 0
90.6212 -0.00297582 0
90.993 -0.999451 0
81.6469 -0.0395758 0
80.8824 -2.82366 0
81.9506 1.80402 0
80.6422 0.447425 0
77.805 4.04433 0
77.3103 7.32031 0
77.0553 -6.26394 0
78.2696 -3.22629 0
78.7637 -2.11028 0
77.5096 -2.23005 0
77.8979 4.63739 0
78.1953 2.22468 0
90.8519 0.0515668 0
90.602 0.143267 0
90.7687 -0.0509783 0
91.7123 0.0876372 0
79.7343 -5.42359 0
80.8201 -5.26048 0
80.4025 4.64005 0
80.9482 8.53398 0
79.0662 -3.97843 0
80.2353 -2.31128 0
80.0694 3.11505 0
79.2295 1.53556 0
90.4958 1.07502 0
89.9357 0.131248 0
90.1832 -0.00920124 0
90.0807 -0.966868 0
77.2867 1.01488 0
77.8415 0.0289216 0
90.6895 -0.0519391 0
91.3278 -0.332143 0
91.0421 0.230877 0
90.5085 0.0350098 0
78.8005 -0.956357 0
78.328 -1.33201 0
79.1096 1.74138 0
78.2078 0.733266 0
77.8888 -0.142863 0
78.1288 -0.694568 0
77.9535 0.309488 0
77.8641 0.132492 0
74.0811 1.71304 0
76.9282 1.52476 0
87.0095 -3.14574 0
90.3495 -6.33118 0
91.3063 5.77994 0
86.7208 2.26922 0
76.7761 -2.31288 0
74.7139 -2.8999 0
89.2409 0.150219 0
89.5365 0.83525 0
88.5352 0.0739715 0
89.1815 0.812879 0
89.5512 -0.819379 0
89.3729 -0.133418 0
88.937 -0.689877 0
88.834 -0.0131659 0
90.3545 -0.201729 0
90.4616 -0.582316 0
90.3111 0.366571 0
90.0634 0.00602555 0
77.851 0.175623 0
77.6671 0.535984 0
76.426 0.452386 0
74.1741 0.845597 0
77.7822 -0.246577 0
77.836 -0.166104 0
77.3597 0.27465 0
77.2871 -0.750039 0
92.8399 -2.71121 0
89.7114 -1.74067 0
90.6891 2.20651 0
92.9812 1.58224 0
78.0112 -0.0625956 0
78.109 -0.362093 0
77.8879 0.0513513 0
78.2843 0.260218 0
89.7333 -0.193003 0
89.7569 -0.502576 0
89.7821 0.334629 0
89.38 0.108711 0
88.3599 0.169619 0
88.5504 0.531552 0
88.5779 -0.625252 0
88.4479 -0.149661 0
78.45 -0.89798 0
79.3623 -2.13188 0
78.8045 1.61136 0
78.4299 1.27229 0
79.1305 2.87738 0
77.5575 1.8514 0
78.0986 -1.92262 0
78.7575 -2.79039 0
91.2146 -0.532421 0
92.126 0.287901 0
92.2916 -0.281797 0
91.6342 0.571128 0
77.6712 -1.14711 0
77.7875 -1.36393 0
77.8147 1.08001 0
77.315 1.3069 0
88.3901 0.563312 0
88.1006 0.169647 0
88.1565 -0.105403 0
88.3325 -0.480778 0
85.1163 4.2633 0
87.12 7.11807 0
86.6136 -8.38504 0
86.1613 -3.34013 0
75.1919 -3.4231 0
77.5183 -3.51097 0
84.7403 -3.05952 0
85.3831 -1.09625 0
83.7374 0.453784 0
87.0547 3.10043 0
74.7846 4.62373 0
76.6896 2.73108 0
89.0786 -0.0487346 0
89.2643 -0.521433 0
89.138 0.34522 0
89.0429 0.0954821 0
88.896 -0.367673 0
88.6787 -1.50997 0
89.2286 2.07817 0
88.2517 0.271344 0
83.1044 1.39574 0
81.3601 0.349973 0
82.4838 -0.33608 0
83.146 -3.10812 0
90.9988 0.301396 0
91.2589 0.806379 0
91.4161 -0.880822 0
91.3487 -0.0451455 0
82.1378 -3.82891 0
83.2329 -1.83592 0
82.4495 2.70927 0
85.0018 5.98134 0
88.0136 0.349036 0
87.8911 0.066643 0
88.0424 -0.103699 0
88.0177 -0.362888 0
88.5537 -0.18452 0
88.7161 -0.00847302 0
88.69 0.100984 0
88.533 0.436596 0
79.8952 0.496563 0
79.653 1.30159 0
79.9128 -1.14462 0
80.7559 -0.318287 0
81.4264 2.82383 0
79.813 1.94577 0
79.1978 -2.83049 0
78.3681 -2.85914 0
90.5889 -0.479811 0
90.344 -0.277698 0
90.1697 0.374434 0
91.0877 0.622278 0
79.8042 3.84223 0
80.3109 2.56654 0
79.2713 -0.823236 0
79.1011 -0.293011 0
78.9411 0.265399 0
79.6585 0.886914 0
76.5471 -0.874121 0
77.5175 -1.3469 0
92.2185 -3.6188 0
89.7644 -2.05865 0
89.2298 3.7381 0
92.606 3.6821 0
77.8844 -0.859107 0
77.8821 -0.138953 0
77.8225 0.194229 0
77.9577 0.840124 0
78.2153 0.0868107 0
78.2382 0.623982 0
78.388 -0.342831 0
78.5342 -0.0200981 0
75.4081 -0.268396 0
73.0959 0.151212 0
85.1206 3.21837 0
89.186 2.96357 0
87.8817 -2.50801 0
88.4812 -4.96047 0
77.5656 2.06637 0
77.1281 1.15268 0
77.8576 -0.0246448 0
77.6562 -0.0495201 0
80.361 6.8319 0
78.2681 4.05356 0
80.0042 -4.29437 0
79.0249 -8.10375 0
77.3655 0.784174 0
77.7692 0.419565 0
90.3461 0.487093 0
90.686 1.05848 0
90.3849 -0.968001 0
90.3291 -0.189521 0
88.1683 -0.123753 0
88.3665 -0.0823052 0
88.3403 0.0712011 0
88.255 0.41787 0
92.7049 0.422868 0
91.6015 1.369 0
91.6331 -0.550502 0
92.8442 -0.671871 0
77.4706 0.107538 0