# vtk DataFile Version 3.0
Unstructured Grid for Triangles
ASCII
DATASET UNSTRUCTURED_GRID
POINTS 29612 DOUBLE
-2.72397e-05 1.23686e-06 0
-2.95789e-05 9.5838e-07 0
-2.77865e-05 -3.1235e-07 0
0.0002024 5e-05 0
0.000203975 4.9875e-05 0
0.000205 5e-05 0
0.000203975 -4.9875e-05 0
0.0002024 -5e-05 0
0.000205 -5e-05 0
0.00020295 4.975e-05 0
0.00020295 -4.975e-05 0
0.000201925 4.9625e-05 0
0.000201925 -4.9625e-05 0
-5.29747e-05 -4.79887e-05 0
-5.5e-05 -5e-05 0
-5.24e-05 -5e-05 0
-5.05983e-05 -4.84325e-05 0
-4.98e-05 -5e-05 0
-4.72e-05 -5e-05 0
-4.83864e-05 -4.87761e-05 0
-4.46e-05 -5e-05 0
-4.59e-05 -4.84239e-05 0
-4.29453e-05 -4.24878e-05 0
-4.47486e-05 -4.20717e-05 0
-4.41829e-05 -4.36609e-05 0
-5.12578e-05 -4.62101e-05 0
-4.93077e-05 -4.53594e-05 0
-5.0706e-05 -4.39006e-05 0
-4.19243e-05 -4.77545e-05 0
-4.40307e-05 -4.71837e-05 0
-4.3691e-05 -4.86724e-05 0
-5.16129e-05 -4.20948e-05 0
-4.95355e-05 -4.15432e-05 0
-5.11646e-05 -4.0128e-05 0
-3.94697e-05 -4.81197e-05 0
-4.06302e-05 -4.55143e-05 0
-5.37257e-05 -3.88197e-05 0
-5.31099e-05 -4.07297e-05 0
-5.23982e-05 -3.88328e-05 0
-3.70063e-05 -4.72956e-05 0
-3.68e-05 -5e-05 0
-3.5308e-05 -4.85302e-05 0
-5.072e-05 -3.7867e-05 0
-4.85506e-05 -3.83975e-05 0
-4.90949e-05 -3.59622e-05 0
-3.37127e-05 -4.84331e-05 0
-3.16e-05 -5e-05 0
-3.26495e-05 -4.7415e-05 0
-5.5e-05 -3.5e-05 0
-5.31201e-05 -3.70361e-05 0
-5.28367e-05 -3.46817e-05 0
-3.63898e-05 -4.48809e-05 0
-3.83315e-05 -4.60336e-05 0
-3.26269e-06 -4.15503e-05 0
-5.99662e-06 -4.09556e-05 0
-5.46944e-06 -4.29488e-05 0
-5.29747e-05 4.79887e-05 0
-5.5e-05 5e-05 0
-5.5e-05 4.75e-05 0
-5.5e-05 4.5e-05 0
-5.34834e-05 4.29171e-05 0
-5.26943e-05 4.42611e-05 0
-5.34026e-05 4.60176e-05 0
-5.31099e-05 4.07297e-05 0
-5.11672e-05 4.01178e-05 0
-5.16129e-05 4.20948e-05 0
-5.24e-05 5e-05 0
-5.05983e-05 4.84325e-05 0
-5.31201e-05 3.70361e-05 0
-5.072e-05 3.7867e-05 0
-5.23982e-05 3.88328e-05 0
-4.8341e-05 4.69132e-05 0
-4.83679e-05 4.87539e-05 0
-5.28367e-05 3.46817e-05 0
-5.5e-05 3.25e-05 0
-5.25657e-05 3.28474e-05 0
-4.98e-05 5e-05 0
-5.30382e-05 3.125e-05 0
-4.19243e-05 4.77545e-05 0
-4.40015e-05 4.7335e-05 0
-4.25917e-05 4.63678e-05 0
-4.35138e-05 2.62661e-05 0
-4.14982e-05 2.74462e-05 0
-4.35654e-05 2.85217e-05 0
-4.59e-05 4.84239e-05 0
-4.36852e-05 4.87027e-05 0
-4.46e-05 5e-05 0
-5.33308e-05 2.92503e-05 0
-5.5e-05 2.75e-05 0
-5.23377e-05 2.76953e-05 0
-4.25282e-05 4.46352e-05 0
-4.09368e-05 4.35728e-05 0
-4.06302e-05 4.55143e-05 0
0.0002009 4.95e-05 0
0.0001998 5e-05 0
0.000199875 4.9375e-05 0
0.00019885 4.925e-05 0
0.0001972 5e-05 0
0.000197825 4.9125e-05 0
0.0001968 4.9e-05 0
0.000195775 4.8875e-05 0
0.0001946 5e-05 0
0.00019475 4.875e-05 0
0.000193725 4.8625e-05 0
0.000192 5e-05 0
0.0001927 4.85e-05 0
0.000191675 4.8375e-05 0
0.00019065 4.825e-05 0
0.0001894 5e-05 0
0.000189625 4.8125e-05 0
0.0001886 4.8e-05 0
0.0001868 5e-05 0
0.000187575 4.7875e-05 0
0.00018655 4.775e-05 0
0.000185515 4.8575e-05 0
0.0001842 5e-05 0
0.0001845 4.75e-05 0
0.000185525 4.7625e-05 0
0.000182564 4.829e-05 0
0.0001816 5e-05 0
0.00018245 4.725e-05 0
0.000183475 4.7375e-05 0
0.000181425 4.7125e-05 0
0.000180295 4.82657e-05 0
0.000179 5e-05 0
0.000179375 4.6875e-05 0
0.0001804 4.7e-05 0
0.000178168 4.80619e-05 0
0.0001764 5e-05 0
0.000177325 4.6625e-05 0
0.00017835 4.675e-05 0
0.000176428 4.76631e-05 0
0.0001763 4.65e-05 0
0.0001738 5e-05 0
0.0001751 4.84164e-05 0
0.000175275 4.6375e-05 0
0.000174025 4.75632e-05 0
0.0001712 5e-05 0
0.000172615 4.78449e-05 0
0.0001722 4.6e-05 0
0.000173225 4.6125e-05 0
0.00017015 4.575e-05 0
0.000171243 4.7381e-05 0
0.000169554 4.79999e-05 0
0.0001686 5e-05 0
0.000167507 4.79751e-05 0
0.000168498 4.64861e-05 0
0.000166 5e-05 0
0.00016558 4.71459e-05 0
0.000167135 4.62887e-05 0
0.0001681 4.55e-05 0
0.00016605 4.525e-05 0
0.000167075 4.5375e-05 0
0.000164059 4.61599e-05 0
0.00016394 4.79552e-05 0
0.000162881 4.6615e-05 0
0.000162975 4.4875e-05 0
0.000165025 4.5125e-05 0
0.000164 4.5e-05 0
0.000161754 4.58641e-05 0
0.000161722 4.78101e-05 0
0.000159956 4.58294e-05 0
0.000160925 4.4625e-05 0
0.00016195 4.475e-05 0
0.000157667 4.60322e-05 0
0.000158875 4.4375e-05 0
0.000159194 4.80155e-05 0
0.0001599 4.45e-05 0
0.00015785 4.425e-05 0
0.000155808 4.56757e-05 0
0.000155647 4.76701e-05 0
0.000154059 4.66642e-05 0
0.000153756 4.50083e-05 0
0.000154839 4.50446e-05 0
0.000156825 4.4125e-05 0
0.000151954 4.80508e-05 0
0.000154052 4.8477e-05 0
0.000153 5e-05 0
0.000154775 4.3875e-05 0
0.000152142 4.56625e-05 0
0.000152821 4.45753e-05 0
0.00015375 4.375e-05 0
0.0001504 5e-05 0
0.000149644 4.85168e-05 0
0.000151787 4.43178e-05 0
0.000152725 4.3625e-05 0
0.000150675 4.3375e-05 0
0.0001517 4.35e-05 0
0.000148119 4.50887e-05 0
0.000148072 4.75757e-05 0
0.000146584 4.63516e-05 0
0.000150008 4.6396e-05 0
0.000149351 4.4543e-05 0
0.00015061 4.46252e-05 0
0.0001476 4.3e-05 0
0.000148625 4.3125e-05 0
0.000146492 4.82975e-05 0
0.000144888 4.73562e-05 0
0.000146676 4.44259e-05 0
0.000145255 4.53656e-05 0
0.000145652 4.38669e-05 0
0.000141401 4.79821e-05 0
0.0001426 5e-05 0
0.00014 5e-05 0
0.000144374 4.38862e-05 0
0.00014555 4.275e-05 0
0.0001435 4.25e-05 0
0.000144525 4.2625e-05 0
0.000142746 4.38121e-05 0
0.000141288 4.43191e-05 0
0.000141707 4.32778e-05 0
0.00013921 4.38992e-05 0
0.000140355 4.5932e-05 0
0.000138302 4.5922e-05 0
0.000142912 4.58869e-05 0
0.000140592 4.30037e-05 0
0.00014145 4.225e-05 0
0.000136458 4.5869e-05 0
0.000137106 4.4063e-05 0
0.0001394 4.2e-05 0
0.000138259 4.28915e-05 0
0.000137484 4.77094e-05 0
0.000139166 4.78902e-05 0
0.00013586 4.78984e-05 0
0.000133449 4.78649e-05 0
0.000134717 4.61848e-05 0
0.000137256 4.25134e-05 0
0.000135323 4.24541e-05 0
0.000136325 4.1625e-05 0
0.000136122 4.2876e-05 0
0.000131206 4.47284e-05 0
0.000133168 4.56738e-05 0
0.000131773 4.65243e-05 0
0.000134756 4.40343e-05 0
0.000132747 4.36463e-05 0
0.000133483 4.26786e-05 0
0.000131081 4.1867e-05 0
0.000132382 4.22815e-05 0
0.000131507 4.3122e-05 0
0.000131059 4.80123e-05 0
0.00013325 4.125e-05 0
0.00012915 4.075e-05 0
0.00012982 4.18199e-05 0
0.000128915 4.26216e-05 0
0.000126366 4.47574e-05 0
0.000127331 4.30908e-05 0
0.000128781 4.44872e-05 0
0.000125336 4.28376e-05 0
0.000130218 4.31077e-05 0
0.000127894 4.16344e-05 0
0.000124774 4.69608e-05 0
0.000127668 4.64148e-05 0
0.000126591 4.8331e-05 0
0.000126722 4.18415e-05 0
0.000125768 4.11931e-05 0
0.000124326 4.13546e-05 0
0.00012505 4.025e-05 0
0.000122408 4.50118e-05 0
0.000120276 4.47432e-05 0
0.00012139 4.32235e-05 0
0.000124336 4.44132e-05 0
0.000123056 4.27595e-05 0
0.000122977 4.09049e-05 0
0.00012185 4.69217e-05 0
0.000122676 4.85947e-05 0
0.000120525 4.86094e-05 0
0.000121479 4.13153e-05 0
0.000119547 4.24221e-05 0
0.000120249 4.07448e-05 0
0.000119925 3.9625e-05 0
0.000119346 4.06114e-05 0
0.000117479 4.47279e-05 0
0.000114726 4.45259e-05 0
0.00011571 4.27814e-05 0
0.000119443 4.66611e-05 0
0.000117447 4.21596e-05 0
0.000118421 4.0752e-05 0
0.000117409 4.04437e-05 0
0.000116775 4.70073e-05 0
0.0001179 4.855e-05 0
0.000115473 4.84802e-05 0
0.00011685 3.925e-05 0
0.000117875 3.9375e-05 0
0.000115454 4.00551e-05 0
0.0001148 3.9e-05 0
0.000115825 3.9125e-05 0
0.000111704 4.23398e-05 0
0.000113786 4.26731e-05 0
0.000112589 4.43871e-05 0
0.000113234 4.06671e-05 0
0.000114754 4.13371e-05 0
0.0001106 4.42326e-05 0
0.000109703 4.24261e-05 0
0.00011275 3.875e-05 0
0.000113775 3.8875e-05 0
0.000110211 4.80875e-05 0
0.000108244 4.71951e-05 0
0.000109312 4.58413e-05 0
0.000111755 3.99116e-05 0
0.00010944 3.92972e-05 0
0.000110415 4.05876e-05 0
0.000108839 4.07536e-05 0
0.000106472 4.76905e-05 0
0.000107274 4.57868e-05 0
0.000108011 3.92415e-05 0
0.000106885 4.04365e-05 0
0.000106625 3.88708e-05 0
0.000105286 4.19254e-05 0
0.000105055 3.95469e-05 0
0.000104215 4.39764e-05 0
0.000106346 4.40629e-05 0
0.000100945 4.51249e-05 0
0.000102825 4.5614e-05 0
0.000101189 4.68452e-05 0
0.000107625 3.8125e-05 0
0.000105575 3.7875e-05 0
0.0001066 3.8e-05 0
0.000103352 4.76905e-05 0
0.000101803 4.8465e-05 0
0.000103685 3.89398e-05 0
0.00010245 3.8825e-05 0
0.000103525 3.7625e-05 0
0.000101092 3.99779e-05 0
0.000101267 3.82619e-05 0
0.000101382 4.2025e-05 0
0.000103187 4.05286e-05 0
0.000103359 4.24605e-05 0
9.87383e-05 4.5447e-05 0
9.99411e-05 4.35161e-05 0
9.744e-05 4.33145e-05 0
0.00010045 3.725e-05 0
0.000101475 3.7375e-05 0
9.70845e-05 4.65215e-05 0
9.52614e-05 4.67664e-05 0
9.61768e-05 4.49944e-05 0
9.9729e-05 3.87704e-05 0
9.78901e-05 3.9598e-05 0
9.85823e-05 3.81492e-05 0
9.62289e-05 3.93709e-05 0
9.74259e-05 3.81279e-05 0
9.7375e-05 3.6875e-05 0
9.63045e-05 3.76631e-05 0
9.58e-05 5e-05 0
9.32e-05 5e-05 0
9.47542e-05 4.8457e-05 0
9.49675e-05 3.85246e-05 0
9.36214e-05 3.89472e-05 0
9.40006e-05 3.74906e-05 0
9.66411e-05 4.12573e-05 0
9.44241e-05 4.07079e-05 0
9.03569e-05 4.24993e-05 0
9.21701e-05 4.02409e-05 0
9.27439e-05 4.27744e-05 0
8.89795e-05 4.09067e-05 0
9.03071e-05 4.0248e-05 0
9.25447e-05 3.77721e-05 0
9.3275e-05 3.6375e-05 0
9.07708e-05 3.87127e-05 0
9.11303e-05 3.70839e-05 0
9.11933e-05 4.55145e-05 0
9.30678e-05 4.73279e-05 0
9.11886e-05 4.82603e-05 0
8.87724e-05 3.88076e-05 0
8.99595e-05 3.75116e-05 0
9.02e-05 3.6e-05 0
8.89241e-05 3.6954e-05 0
8.36977e-05 4.59472e-05 0
8.36223e-05 4.83578e-05 0
8.20467e-05 4.74142e-05 0
8.71227e-05 4.03557e-05 0
8.61e-05 3.55e-05 0
8.68368e-05 3.65714e-05 0
8.5484e-05 3.6588e-05 0
8.47735e-05 4.02845e-05 0
8.23121e-05 4.21599e-05 0
8.26582e-05 3.98147e-05 0
8.46943e-05 4.2454e-05 0
8.38832e-05 3.78613e-05 0
8.35569e-05 3.63808e-05 0
8.44098e-05 3.6291e-05 0
8.5075e-05 3.5375e-05 0
8.51465e-05 4.77163e-05 0
8.3025e-05 3.5125e-05 0
8.22824e-05 3.68659e-05 0
8.1446e-05 3.57362e-05 0
8.05884e-05 3.71794e-05 0
7.53471e-05 4.77524e-05 0
7.38313e-05 4.73927e-05 0
7.39102e-05 4.61526e-05 0
7.9826e-05 3.58588e-05 0
7.88607e-05 3.76287e-05 0
7.81733e-05 3.57987e-05 0
8.16783e-05 3.84471e-05 0
8.07975e-05 4.04095e-05 0
7.52138e-05 4.04775e-05 0
7.67682e-05 4.17043e-05 0
7.49617e-05 4.21803e-05 0
7.52903e-05 3.84008e-05 0
7.38293e-05 3.93136e-05 0
[...]
CELL_DATA 58684
VECTORS velocity DOUBLE
73.932 0.337322 0
85.2304 -0.000192926 0
85.2049 0.000253677 0
85.2328 0.000258762 0
85.2057 -0.000638767 0
85.239 -0.00199269 0
85.2119 0.00214876 0
77.8544 -0.00334976 0
77.8572 -0.0231138 0
77.9211 -0.00456892 0
78.005 -0.00766646 0
78.0483 -0.406774 0
77.8714 -0.109825 0
78.1181 -0.134046 0
77.8567 -0.185868 0
78.2847 -0.172586 0
77.8543 -0.111248 0
78.5955 -0.156652 0
77.8856 -0.317233 0
79.0577 -0.114707 0
77.8693 -0.11297 0
78.5719 -0.366873 0
84.7624 -2.16617 0
77.8525 0.0114079 0
77.8461 0.051208 0
77.8527 0.0249764 0
77.8617 0.140192 0
77.8569 0.0221775 0
77.863 0.188611 0
77.9209 0.0494067 0
77.865 0.144477 0
77.8889 0.0317218 0
77.8255 0.145252 0
78.1776 0.163798 0
77.8999 1.12882 0
78.0584 0.0672637 0
77.8781 0.175463 0
78.2408 0.354492 0
85.2414 -0.00219572 0
85.2442 -0.000459584 0
85.2527 -0.00310692 0
85.2553 -0.00447796 0
85.258 -0.000810467 0
85.265 -0.00349401 0
85.2677 -0.00594679 0
85.2695 -0.00450603 0
85.2727 -0.000736325 0
85.2793 -0.00613954 0
85.2807 -0.00613112 0
85.2826 -0.000881915 0
85.2906 -0.00667541 0
85.2918 -0.00822294 0
85.2933 -0.00604098 0
85.2959 -0.00100936 0
85.3019 -0.00802724 0
85.3028 -0.00721845 0
85.3046 -0.00114157 0
85.3133 -0.00997782 0
85.3141 -0.0106675 0
85.3153 -0.00678648 0
85.3195 -0.000683408 0
85.3238 -0.0129302 0
85.3275 -0.00914208 0
85.3353 -0.000918431 0
85.3381 -0.0149316 0
85.3392 -0.0144523 0
85.343 -0.0103731 0
85.3476 -0.000844318 0
85.3508 -0.0163009 0
85.3547 -0.0109291 0
85.3595 -0.000888859 0
85.3639 -0.018397 0
85.3677 -0.0138135 0
85.3748 -0.0211714 0
85.3768 -0.000728928 0
85.3819 -0.0160323 0
85.3858 -0.0101726 0
85.3932 -0.00137212 0
85.3978 -0.0227402 0
85.4139 -0.0174547 0
85.4004 -0.0185638 0
85.4139 -0.00140522 0
85.4214 -0.0123764 0
85.4168 -0.0232396 0
85.4412 -0.0152766 0
85.4356 -0.0200257 0
85.4353 -0.026694 0
85.4455 -0.0333553 0
85.4634 -0.0212112 0
85.4769 -0.0293353 0
85.4558 -0.0256379 0
85.4704 -0.0372466 0
85.4851 -0.0291711 0
85.4833 -0.0282858 0
85.4911 -0.0394038 0
85.5191 -0.0354114 0
85.5021 -0.0319099 0
85.5116 -0.0423284 0
85.5294 -0.0481754 0
85.533 -0.0358817 0
85.5583 -0.0450466 0
85.5366 -0.0388429 0
85.5604 -0.0146412 0
85.5632 -0.0488409 0
85.5822 -0.0456576 0
85.5746 -0.0509582 0
85.5839 -0.0136953 0
85.5888 -0.0540492 0
85.6048 -0.060831 0
85.6228 -0.0342821 0
85.6188 -0.0365776 0
85.6042 -0.0502223 0
85.6382 -0.0654628 0
85.6372 -0.0272975 0
85.6689 -0.0591675 0
85.6546 -0.0383482 0
85.6907 -0.00189045 0
85.6777 -0.0665866 0
85.6932 -0.0782982 0
85.7267 -0.0680023 0
85.7472 -0.0523684 0
85.7006 -0.0417022 0
85.7358 -0.0782854 0
85.7745 -0.0530744 0
85.7682 -0.0827242 0
85.7446 -0.0302448 0
85.7807 -0.0741571 0
85.799 -0.0270905 0
85.7957 -0.0871571 0
85.8248 -0.101134 0
85.8631 -0.0608068 0
85.8536 -0.0839461 0
85.8272 -0.038813 0
85.8956 -0.109892 0
85.8402 -0.0306425 0
85.8726 -0.108886 0
85.9429 -0.121966 0
85.9598 -0.0856985 0
85.978 -0.107942 0
85.9325 -0.10263 0
85.9607 -0.111691 0
85.929 -0.0502925 0
86.0077 -0.129582 0
86.0348 -0.142185 0
86.0751 -0.0947006 0
85.9907 -0.0699639 0
86.0303 -0.122237 0
86.0538 -0.145776 0
86.0185 -0.0286466 0
86.1294 -0.155277 0
86.1433 -0.173535 0
86.1939 -0.106814 0
86.0979 -0.0959925 0
86.1599 -0.146061 0
86.1833 -0.174129 0
86.1251 -0.0303647 0
86.2025 -0.201815 0
86.2577 -0.217162 0
86.2794 -0.154912 0
86.2711 -0.177774 0
86.3328 -0.164187 0
86.304 -0.225567 0
86.3164 -0.059492 0
86.316 -0.211768 0
86.3983 -0.216767 0
86.3786 -0.070468 0
86.4731 -0.259054 0
86.505 -0.239518 0
86.4871 -0.150749 0
86.5639 -0.117079 0
86.4767 -0.264285 0
86.5184 -0.292539 0
86.5322 -0.0600666 0
86.6013 -0.295431 0
86.6583 -0.305089 0
86.5718 -0.218991 0
86.6494 -0.135656 0
86.6922 -0.183809 0
86.6914 -0.349572 0
86.7487 -0.118336 0
86.767 -0.324877 0
86.8041 -0.319486 0
86.8311 -0.374355 0
86.7892 -0.00337455 0
86.9452 -0.373438 0
86.8182 -0.287853 0
86.9588 -0.259524 0
87.0381 -0.303686 0
86.9985 -0.412669 0
87.0644 -0.417586 0
86.9213 -0.0934677 0
87.1077 -0.403785 0
87.1376 -0.467521 0
87.1532 -0.450128 0
87.2715 -0.103424 0
87.139 -0.357167 0
87.3261 -0.515892 0
87.3876 -0.390975 0
87.3006 -0.32858 0
87.3942 -0.545558 0
87.3767 -0.538659 0
87.2568 -0.0922319 0
87.4943 -0.598422 0
87.5357 -0.56012 0
87.7454 -0.105675 0
87.6472 -0.615244 0
87.4763 -0.42926 0
87.7607 -0.390041 0
87.8308 -0.503012 0
87.7088 -0.557627 0
87.7369 -0.663865 0
87.808 -0.238057 0
87.9292 -0.63513 0
87.8792 -0.737365 0
88.0903 -0.742867 0
88.0488 -0.00944729 0
88.0375 -0.613862 0
88.1055 -0.768262 0
87.9321 -0.190547 0
88.1761 -0.808587 0
88.2773 -0.461403 0
88.2257 -0.846021 0
88.458 -0.25578 0
88.4136 -0.719928 0
88.3772 -0.851361 0
88.3113 -0.132025 0
88.532 -0.876359 0
88.7305 -0.848974 0
88.5598 -0.728704 0
88.6102 -0.435394 0
88.7676 -0.977403 0
88.7778 -0.379972 0
88.9543 -0.0651253 0
88.7071 -0.765553 0
88.8961 -0.962117 0
88.9902 -1.03611 0
89.0223 -0.319828 0
89.1463 -0.886682 0
89.3169 -0.967702 0
89.1092 -0.109788 0
89.4763 -0.935947 0
89.3845 -1.0512 0
89.2309 -0.779859 0
89.3011 -0.373435 0
89.423 -0.434337 0
89.5526 -1.0504 0
89.4941 -0.0046815 0
89.6673 -1.12069 0
89.8131 -1.05647 0
89.7658 -1.11592 0
89.7537 -0.237614 0
89.8817 -0.904057 0
90.1512 -0.906657 0
89.7338 -0.00274566 0
90.2453 -1.08134 0
90.4365 -0.909602 0
90.0615 -0.66203 0
89.8899 -0.270167 0
90.4306 -1.03095 0
90.0603 -0.332871 0
89.8971 -0.013129 0
90.3625 -0.684294 0
90.7092 -0.925459 0
90.8839 -0.857725 0
90.0739 -0.0602705 0
90.8407 -0.572291 0
90.9786 -0.758908 0
89.9565 0.0391232 0
91.1264 -0.741613 0
91.3232 -0.606377 0
90.9427 -0.188214 0
89.7407 0.0119931 0
91.4905 -0.375691 0
90.6346 0.233485 0
90.8742 0.347839 0
91.3652 -0.228306 0
91.1448 0.0262063 0
91.8374 0.0192621 0
89.8756 0.390185 0
91.8196 -0.0832973 0
91.3819 0.478418 0
92.0378 0.567237 0
89.786 0.115043 0
92.0062 1.26804 0
91.7837 1.49521 0
88.4812 0.200357 0
92.2285 0.96514 0
92.1379 1.43857 0
89.817 1.5086 0
89.5547 0.722755 0
91.0739 1.16459 0
92.0445 1.97016 0
88.7273 0.334666 0
91.5673 2.85564 0
92.2242 2.21815 0
92.2396 2.44461 0
88.0009 1.42677 0
90.6069 2.9714 0
91.6294 3.24332 0
87.9775 0.236767 0
91.4485 3.74298 0
91.1056 3.61181 0
90.1679 5.22736 0
85.7683 0.397554 0
91.2835 4.93806 0
89.3161 3.5595 0
87.4761 1.57446 0
87.1125 2.99532 0
91.0569 5.44071 0
89.9458 5.87617 0
86.1994 0.611579 0
90.0144 6.70102 0
85.2142 0.00210969 0
85.2167 0.000455104 0
85.224 0.00257078 0
85.2263 0.00411492 0
85.2284 0.0007779 0
85.2351 0.00329561 0
85.2375 0.0055233 0
85.2392 0.00447139 0
85.2422 0.000732174 0
85.2483 0.0055292 0
85.2498 0.00542389 0
85.2511 0.000851723 0
85.2587 0.00629932 0
85.2598 0.00780598 0
85.2611 0.0057318 0
85.2636 0.000990628 0
85.2694 0.00796726 0
85.2705 0.00723723 0
85.2722 0.00112973 0
85.2808 0.00975152 0
85.2816 0.0104606 0
85.2903 0.0130433 0
85.2828 0.00663569 0
85.2948 0.00794216 0
85.3026 0.0129843 0
85.2949 0.00929393 0
85.3071 0.0144306 0
85.3108 0.010435 0
85.3177 0.0164017 0
85.3086 0.00906971 0
85.3224 0.0112221 0
85.3308 0.0186323 0
85.3228 0.00924896 0
85.3431 0.0216815 0
85.3443 0.0209598 0
85.3488 0.0151156 0
85.3374 0.0110749 0
85.3504 0.0164424 0
85.3633 0.0153138 0
85.3544 0.0104723 0
85.3764 0.0278309 0
85.3734 0.0116281 0
85.3835 0.0178439 0
85.3719 0.0143501 0
85.3866 0.0237084 0
85.4058 0.0271572 0
85.4112 0.0156857 0
85.402 0.0253714 0
85.4209 0.028871 0
85.4231 0.0331868 0
85.441 0.0161645 0
85.4342 0.0215371 0
85.4478 0.0297464 0
85.4612 0.042201 0
85.4651 0.0200406 0
85.4713 0.0321656 0
85.4811 0.04457 0
85.4907 0.0257248 0
85.4729 0.0321336 0
85.5017 0.0490937 0
85.5028 0.0479702 0
85.5092 0.0301715 0
85.5203 0.0214948 0
85.5305 0.0450725 0
85.4768 0.0136943 0
85.5473 0.0514612 0
85.5779 0.0621959 0
85.561 0.052591 0
85.5457 0.0307078 0
85.5894 0.0631026 0
85.5964 0.0548489 0
85.6126 0.0275548 0
85.5786 0.0513296 0
85.6187 0.0582789 0
85.6353 0.0671101 0
85.5851 0.0159136 0
85.6236 0.0484295 0
85.6693 0.0784033 0
85.6323 0.0394753 0
85.6802 0.0675647 0
85.7111 0.082558 0
85.6852 0.0607606 0
85.7046 0.0246088 0
85.7206 0.0729327 0
85.7388 0.0836936 0
85.7196 0.021119 0
85.7639 0.0928272 0
85.7282 0.0684852 0
85.7856 0.0759466 0
85.7455 0.0529089 0
85.7986 0.101294 0
85.8595 0.122111 0
85.817 0.0304538 0
85.8157 0.0837971 0
85.8872 0.129495 0
85.8625 0.0931121 0
85.8046 0.0380087 0
85.9036 0.121497 0
85.9272 0.127684 0
85.8857 0.0316273 0
85.9314 0.0555174 0
85.9612 0.111761 0
85.9796 0.149353 0
85.9069 0.0792773 0
86.0118 0.143252 0
86.0351 0.155406 0
86.0402 0.0518408 0
86.0133 0.0942008 0
86.0866 0.174123 0
86.0817 0.148419 0
85.9777 0.0488644 0
86.1077 0.16697 0
86.1598 0.178718 0
86.1364 0.0701796 0
86.1246 0.15362 0
86.2231 0.213631 0
86.2089 0.164495 0
86.077 0.0528919 0
86.2488 0.1995 0
86.3237 0.244507 0
86.2016 0.0696038 0
86.31 0.19455 0
86.2903 0.0900452 0
86.3569 0.204719 0
86.266 0.116401 0
86.3895 0.259057 0
86.4528 0.25936 0
86.3553 0.0710204 0
86.4423 0.254283 0
86.528 0.293903 0
86.4879 0.0745852 0
86.4102 0.214768 0
86.5195 0.251323 0
86.582 0.297068 0
86.4588 0.0461598 0
86.5957 0.271064 0
86.708 0.353216 0
86.6876 0.295982 0
86.6229 0.0890636 0
86.7703 0.309758 0
86.5682 0.114724 0
86.5989 0.261259 0
86.7577 0.34279 0
86.8789 0.387406 0
86.891 0.397715 0
86.5899 0.0061621 0
86.9996 0.453237 0
87.0138 0.440426 0
87.0448 0.389271 0
86.9766 0.190535 0
87.0947 0.204714 0
87.0597 0.435286 0
86.8091 0.118142 0
87.1955 0.488475 0
87.1862 0.481448 0
87.1966 0.432751 0
87.0819 0.125458 0
87.2865 0.478866 0
87.4248 0.598717 0
87.273 0.224258 0
87.211 0.237091 0
87.3828 0.484318 0
87.564 0.618506 0
87.1206 0.147153 0
87.608 0.655539 0
87.653 0.635471 0
87.4536 0.123901 0
87.8098 0.726765 0
87.8478 0.695558 0
87.9276 0.597776 0
87.6867 0.262729 0
87.6506 0.297532 0
87.8319 0.671671 0
87.5415 0.193299 0
88.0162 0.800222 0
88.0766 0.751856 0
88.0788 0.692522 0
87.7882 0.104876 0
88.2702 0.813775 0
88.2916 0.83078 0
88.1155 0.465605 0
88.397 0.65276 0
88.1367 0.378205 0
88.3534 0.795293 0
88.0106 0.239959 0
88.5277 0.922926 0
88.5575 0.88976 0
88.0585 0.192548 0
88.6352 0.81893 0
88.8382 0.939197 0
88.7405 0.920298 0
88.6179 0.213987 0
89.0678 0.978041 0
89.1166 1.04575 0
88.5649 0.636826 0
89.0009 0.774229 0
88.6328 0.387363 0
89.3298 1.09622 0
88.8325 0.119514 0
89.4005 1.06154 0
89.3962 1.00266 0
88.6327 0.0953288 0
89.3247 0.908824 0
89.7469 1.06664 0
89.8471 1.07333 0
89.2743 0.271096 0
89.9288 1.0432 0
89.9811 1.11316 0
89.2437 0.684117 0
89.9962 0.726272 0
89.4517 0.260458 0
90.1604 1.10607 0
89.4852 0.09519 0
90.3191 1.02584 0
90.4156 1.00708 0
89.2942 0.0702047 0
90.2311 0.832265 0
90.7273 0.926793 0
90.9003 0.860213 0
89.7771 0.163453 0
90.7296 0.804321 0
91.0506 0.805273 0
90.3312 0.704045 0
90.844 0.382907 0
89.8791 0.0980416 0
90.8093 0.720851 0
89.909 0.0342227 0
91.3115 0.692471 0
91.4052 0.543242 0
89.7877 0.0368772 0
91.111 0.240651 0
91.5696 0.254148 0
91.768 0.116368 0
89.959 -0.106108 0
91.8664 -0.0912214 0
91.9169 -0.226777 0
90.1227 -0.291277 0
91.935 -0.260009 0
91.1443 -0.689384 0
90.368 -0.11888 0
90.1637 -0.0171393 0
92.0808 -0.555068 0
91.848 -0.943813 0
92.2837 -1.13001 0
89.8509 -0.00863777 0
91.5745 -1.38806 0
92.2989 -1.86606 0
89.8314 -0.131873 0
91.404 -1.35135 0
92.2843 -2.4053 0
90.8691 -1.81126 0
89.8302 -0.677422 0
92.0996 -2.75065 0
91.9662 -3.04137 0
90.8025 -1.15653 0
90.3044 -3.18495 0
88.3163 -2.61073 0
91.6138 -3.07022 0
88.6859 -0.413835 0
91.6099 -4.0224 0
89.1106 7.29146 0
89.8248 6.52677 0
84.5523 1.92611 0
89.012 7.24574 0
86.8184 6.62292 0
88.3621 7.87192 0
85.1212 0.759021 0
87.403 8.0689 0
86.2566 7.93586 0
83.9173 0.961415 0
86.3245 8.46169 0
91.527 -4.43768 0
88.917 -0.256303 0
91.2691 -4.77872 0
90.0547 -5.1645 0
89.5021 -4.44824 0
88.0688 -0.272255 0
90.2946 -5.75535 0
85.0596 7.72412 0
89.6594 -7.02192 0
87.8386 -1.40885 0
89.344 -6.78577 0
88.4967 -7.74253 0
82.8001 2.35854 0
88.0694 -7.59554 0
89.2447 -4.25766 0
88.5542 -6.88742 0
86.7294 -5.09423 0
85.7965 -0.839328 0
87.6345 -6.98806 0
86.8615 -7.39146 0
84.4438 8.14993 0
86.9282 -7.40481 0
86.6055 -0.456907 0
85.9226 -7.74937 0
85.4153 -8.45124 0
85.1405 -0.56494 0
84.349 -8.58954 0
84.8543 -6.30953 0
83.0494 -0.654701 0
83.3544 -8.73904 0
83.4524 -4.8464 0
85.1114 -3.82476 0
83.8997 -7.48429 0
82.8143 -7.82935 0
85.42 4.38864 0
81.9327 0.52997 0
84.8421 2.93411 0
83.5418 -0.076549 0
82.2698 -8.49099 0
84.0789 7.71924 0
81.6712 0.383455 0
83.5301 6.56436 0
81.4235 -8.35386 0
83.1267 -1.71002 0
80.761 -6.09754 0
83.5023 8.79465 0
80.6016 2.01638 0
83.4057 8.71963 0
81.2601 7.2659 0
80.8829 0.410005 0
81.8624 7.64368 0
81.3486 -6.34724 0
82.6599 -0.470613 0
80.5874 -8.48073 0
80.6103 -8.24746 0
82.2237 8.20873 0
80.3501 7.82182 0
80.2266 0.0428713 0
81.3816 8.0774 0
79.6149 5.0572 0
80.214 2.27691 0
79.6828 -8.42764 0
80.6702 -1.09111 0
80.0128 -8.30239 0
79.2283 8.27071 0
79.0788 -7.69917 0
79.8425 -1.07318 0
79.4559 -3.38535 0
77.8422 -7.39351 0
80.8612 -4.09145 0
77.7075 -7.15172 0
79.3743 -0.290817 0
76.806 -6.83125 0
79.0259 2.85411 0
79.6283 0.4601 0
78.8266 6.94576 0
79.0642 0.11848 0
78.6058 8.14816 0
78.3365 7.64489 0
78.7686 0.186265 0
77.6042 6.69095 0
78.5717 0.133812 0
78.1918 -6.39228 0
79.3708 -0.574397 0
79.4042 6.01978 0
77.8309 0.731756 0
77.1667 6.28213 0
76.6973 -6.79118 0
79.482 -0.228028 0
75.0918 -5.80847 0
77.8395 -0.44033 0
75.9162 -5.71625 0
78.3362 2.54054 0
77.8498 0.121117 0
78.9225 -5.20128 0
77.8505 -0.112746 0
75.2272 -5.38124 0
76.5925 5.668 0
76.6528 -4.246 0
77.8526 -0.239537 0
75.5483 -4.61004 0
77.6852 3.13071 0
75.5571 1.98507 0
76.1131 4.90169 0
77.5373 -0.981155 0
75.3806 -5.10739 0
77.7808 0.402264 0
75.9998 6.61401 0
77.4957 -2.36875 0
77.8526 -0.0837203 0
75.0615 -4.60857 0
75.7425 5.90801 0
77.7714 0.715376 0
75.7303 4.61823 0
75.4452 4.55701 0
77.7726 0.38204 0
74.66 4.05998 0
74.2041 -4.13674 0
77.8137 -0.293361 0
73.9044 -4.1304 0
76.3519 -1.96604 0
77.8365 -0.198845 0
73.2908 -2.81546 0
74.7052 5.05 0
77.6876 0.617297 0
75.9971 3.23611 0
73.9105 -2.55645 0
77.705 -0.31247 0
73.2566 -2.32889 0
73.603 3.7157 0
77.7126 0.262884 0
74.0109 3.50007 0
74.3199 2.85488 0
77.849 0.0336444 0
73.4767 3.04133 0
74.6299 -1.50568 0
77.6266 -0.537375 0
73.9084 -1.32766 0
72.7169 -0.844307 0
76.8949 -0.919274 0
72.7679 -0.715161 0
76.5833 0.956516 0
77.761 0.0804043 0
75.616 2.42044 0
73.2595 2.44961 0
77.5982 0.05882 0
72.838 1.5474 0
77.2798 -0.233986 0
77.8284 -0.112984 0
72.767 -0.23501 0
73.2995 -0.0921975 0
77.784 -0.0657206 0
75.5624 0.305762 0
73.4676 0.523838 0
77.8052 -0.0615879 0
76.8204 -5.63067 0
77.8649 -0.43106 0
77.8315 0.134173 0
77.6099 6.85093 0
78.5262 -7.70413 0
81.5812 -0.94057 0
80.0616 0.993242 0
81.1424 8.58053 0
77.7637 0.279921 0
74.1543 4.83187 0
73.6576 -2.82373 0
77.7899 -0.203545 0
77.8076 -0.573338 0
77.2478 -3.65199 0
77.8476 0.799955 0
77.8877 0.196676 0
77.7709 -2.80502e-05 0
73.3358 2.04502 0
79.0208 0.464407 0
78.1737 1.56963 0
78.4798 -1.37047 0
79.8869 -0.68774 0
85.2275 -1.27108 0
84.8171 -8.43683 0
86.6721 8.0611 0
84.778 0.468864 0
77.5547 1.65781 0
79.1494 7.96524 0
78.1164 -7.04803 0
78.9418 -2.30687 0
76.6893 -1.45573 0
74.3153 -0.217655 0
75.7835 5.80259 0
77.8616 1.88215 0
77.7078 -1.78482 0
74.4295 -4.61347 0
91.0264 -5.4131 0
87.7663 -0.664448 0
87.3595 0.795139 0
91.4522 4.52313 0
77.8421 -0.813427 0
77.8599 -0.0428547 0
77.8409 0.148758 0
78.7022 0.753079 0
82.6022 0.73694 0
82.2347 4.09399 0
80.7753 -1.98357 0
83.7498 -1.74169 0
81.1795 4.87977 0
84.0103 8.28073 0
82.861 -8.65409 0
82.06 -1.91514 0
85.9712 1.61064 0
87.0432 5.02706 0
85.6337 -2.78946 0
86.7372 -0.0445346 0
89.7864 -0.261309 0
92.2514 -1.37665 0
92.073 0.579816 0
89.0196 0.031204 0
89.8817 0.00061969 0
91.4502 0.522935 0
91.2249 -0.512622 0
90.0565 0.0489438 0
78.7492 -1.44184 0
78.2672 -0.571871 0
78.1673 1.23349 0
78.9125 0.944474 0
78.0289 1.22068 0
77.8519 0.237345 0
77.8478 -0.108053 0
77.9719 -1.12135 0
88.7381 0.963815 0
89.9562 1.90895 0
89.0504 -1.15988 0
89.2297 -0.174248 0
75.7006 -0.95718 0
77.8011 -0.154751 0
77.3295 -0.439371 0
77.8078 -0.370931 0
77.8235 0.206764 0
77.7395 0.966217 0
90.4963 0.949908 0
89.6328 0.148685 0
89.8195 -0.00175929 0
90.2053 -1.03689 0
81.226 -0.0415345 0
80.4886 -2.81505 0
81.5065 1.79914 0
80.2775 0.447521 0
77.4892 4.0256 0
76.8962 7.28625 0
76.6748 -6.23242 0
77.9853 -3.21147 0
78.5093 -2.1019 0
77.2813 -2.22384 0
77.5572 4.62016 0
77.9587 2.21846 0
90.069 0.0613678 0
89.8277 0.148659 0
89.9859 -0.0559357 0
90.9532 0.0562802 0
79.3206 -5.40295 0
80.3798 -5.24258 0
79.9959 4.62458 0
80.4527 8.49956 0
78.7174 -3.965 0
79.877 -2.30774 0
79.7047 3.10837 0
78.9583 1.52998 0
89.6731 1.13787 0
89.086 0.138196 0
89.3522 -0.0087033 0
89.2206 -1.02719 0
77.1173 1.0086 0
77.8208 0.0314237 0
89.8898 -0.0503353 0
90.5508 -0.322905 0
90.2533 0.22727 0
89.6985 0.0355882 0
78.5812 -0.952223 0
78.1435 -1.32636 0
78.845 1.73465 0
78.0666 0.735446 0
77.8658 -0.14603 0
78.0114 -0.694627 0
77.8859 0.314867 0
77.8429 0.136352 0
73.7812 1.70698 0
76.7166 1.51912 0
86.3762 -3.15338 0
89.6518 -6.36873 0
90.5923 5.83263 0
86.0904 2.27816 0
76.5234 -2.29986 0
74.4094 -2.88686 0
88.3348 0.156525 0
88.6283 0.886246 0
87.5498 0.0768366 0
88.2331 0.853614 0
88.6424 -0.866332 0
88.4797 -0.139779 0
87.9626 -0.715465 0
87.8881 -0.0120914 0
89.5304 -0.209189 0
89.6371 -0.607173 0
89.4815 0.382319 0
89.2246 0.00570533 0
77.8219 0.18035 0
77.5647 0.535451 0
76.2161 0.452634 0
73.8809 0.842613 0
77.7163 -0.246232 0
77.8111 -0.170737 0
77.2211 0.275753 0
77.1253 -0.744076 0
92.0996 -2.80583 0
88.9889 -1.7677 0
89.96 2.25027 0
92.2431 1.67654 0
77.9299 -0.0646876 0
77.9994 -0.366818 0
77.859 0.0498746 0
78.1464 0.25978 0
88.8689 -0.203298 0
88.8825 -0.531271 0
88.9179 0.353717 0
88.4879 0.114482 0
87.335 0.170846 0
87.5351 0.54243 0
87.55 -0.635268 0
87.4401 -0.154377 0
78.2694 -0.896338 0
79.0705 -2.12291 0
78.5588 1.60669 0
78.2354 1.26937 0
78.8214 2.8694 0
77.3494 1.84354 0
77.8923 -1.91604 0
78.4721 -2.77998 0
90.4522 -0.562713 0
91.3815 0.245763 0
91.5549 -0.234845 0
90.875 0.610773 0
77.5217 -1.14159 0
77.6237 -1.35856 0
77.6765 1.07687 0
77.1307 1.29863 0
87.3332 0.56528 0
87.0111 0.169617 0
87.082 -0.104487 0
87.262 -0.480986 0
84.5465 4.25981 0
86.4948 7.12062 0
85.9898 -8.37997 0
85.5557 -3.34438 0
74.8806 -3.40738 0
77.2229 -3.4998 0
84.1808 -3.05582 0
84.7961 -1.09527 0
83.2163 0.451639 0
86.4142 3.11139 0
74.4471 4.60335 0
76.4301 2.72085 0
88.1606 -0.051173 0
88.3412 -0.547931 0
88.2173 0.365 0
88.1206 0.100695 0
88.1811 -0.371614 0
87.9789 -1.52389 0
88.5229 2.10219 0
87.5609 0.273814 0
82.6122 1.39143 0
80.9512 0.348911 0
82.0207 -0.332686 0
82.6407 -3.10262 0
90.2074 0.299779 0
90.4857 0.819056 0
90.6501 -0.89371 0
90.5732 -0.0251804 0
81.671 -3.82017 0
82.7319 -1.83366 0
81.9792 2.70165 0
84.4312 5.97342 0
86.8661 0.344015 0
86.7333 0.0652306 0
86.939 -0.103206 0
86.8452 -0.358718 0
87.5624 -0.189671 0
87.7559 -0.00744396 0
87.7241 0.102874 0
87.5212 0.444934 0
79.5846 0.493847 0
79.3552 1.29696 0
79.5945 -1.14427 0
80.3882 -0.314582 0
81.0051 2.81492 0
79.4905 1.94235 0
78.8806 -2.82405 0
78.0995 -2.84743 0
89.8277 -0.496787 0
89.5828 -0.285558 0
89.4155 0.384464 0
90.3258 0.65235 0
79.4359 3.8318 0
79.9492 2.55664 0
79.0058 -0.820732 0
78.8562 -0.290672 0
78.7161 0.263916 0
79.3583 0.886526 0
76.3339 -0.869448 0
77.3452 -1.3408 0
91.4845 -3.69779 0
89.0484 -2.08773 0
88.5411 3.7696 0
91.8697 3.76626 0
77.7787 -0.864042 0
77.866 -0.139838 0
77.7974 0.201003 0
77.8524 0.840275 0
78.0896 0.0877965 0
78.0996 0.621659 0
78.2331 -0.344604 0
78.3603 -0.0208555 0
75.1483 -0.266082 0
72.7836 0.150719 0
84.5448 3.21555 0
88.4892 2.98959 0
87.2138 -2.5188 0
87.8139 -4.9806 0
77.3494 2.05638 0
76.9387 1.14296 0
77.8512 -0.0245013 0
77.5673 -0.0477436 0
79.9088 6.80493 0
77.9432 4.03774 0
79.6144 -4.28214 0
78.5732 -8.06662 0
77.221 0.784079 0
77.7033 0.424356 0
89.5167 0.508955 0
89.8786 1.1127 0
89.552 -1.0227 0
89.5031 -0.19606 0
87.1014 -0.125414 0
87.3479 -0.0840132 0
87.317 0.0719812 0
87.1818 0.417631 0
91.9696 0.49269 0
90.855 1.41995 0
90.8743 -0.593277 0
92.1082 -0.753743 0