# vtk DataFile Version 3.0
Unstructured Grid for Triangles
ASCII
DATASET UNSTRUCTURED_GRID
POINTS 29612 DOUBLE
-2.72397e-05 1.23686e-06 0
-2.95789e-05 9.5838e-07 0
-2.77865e-05 -3.1235e-07 0
0.0002024 5e-05 0
0.000203975 4.9875e-05 0
0.000205 5e-05 0
0.000203975 -4.9875e-05 0
0.0002024 -5e-05 0
0.000205 -5e-05 0
0.00020295 4.975e-05 0
0.00020295 -4.975e-05 0
0.000201925 4.9625e-05 0
0.000201925 -4.9625e-05 0
-5.29747e-05 -4.79887e-05 0
-5.5e-05 -5e-05 0
-5.24e-05 -5e-05 0
-5.05983e-05 -4.84325e-05 0
-4.98e-05 -5e-05 0
-4.72e-05 -5e-05 0
-4.83864e-05 -4.87761e-05 0
-4.46e-05 -5e-05 0
-4.59e-05 -4.84239e-05 0
-4.29453e-05 -4.24878e-05 0
-4.47486e-05 -4.20717e-05 0
-4.41829e-05 -4.36609e-05 0
-5.12578e-05 -4.62101e-05 0
-4.93077e-05 -4.53594e-05 0
-5.0706e-05 -4.39006e-05 0
-4.19243e-05 -4.77545e-05 0
-4.40307e-05 -4.71837e-05 0
-4.3691e-05 -4.86724e-05 0
-5.16129e-05 -4.20948e-05 0
-4.95355e-05 -4.15432e-05 0
-5.11646e-05 -4.0128e-05 0
-3.94697e-05 -4.81197e-05 0
-4.06302e-05 -4.55143e-05 0
-5.37257e-05 -3.88197e-05 0
-5.31099e-05 -4.07297e-05 0
-5.23982e-05 -3.88328e-05 0
-3.70063e-05 -4.72956e-05 0
-3.68e-05 -5e-05 0
-3.5308e-05 -4.85302e-05 0
-5.072e-05 -3.7867e-05 0
-4.85506e-05 -3.83975e-05 0
-4.90949e-05 -3.59622e-05 0
-3.37127e-05 -4.84331e-05 0
-3.16e-05 -5e-05 0
-3.26495e-05 -4.7415e-05 0
-5.5e-05 -3.5e-05 0
-5.31201e-05 -3.70361e-05 0
-5.28367e-05 -3.46817e-05 0
-3.63898e-05 -4.48809e-05 0
-3.83315e-05 -4.60336e-05 0
-3.26269e-06 -4.15503e-05 0
-5.99662e-06 -4.09556e-05 0
-5.46944e-06 -4.29488e-05 0
-5.29747e-05 4.79887e-05 0
-5.5e-05 5e-05 0
-5.5e-05 4.75e-05 0
-5.5e-05 4.5e-05 0
-5.34834e-05 4.29171e-05 0
-5.26943e-05 4.42611e-05 0
-5.34026e-05 4.60176e-05 0
-5.31099e-05 4.07297e-05 0
-5.11672e-05 4.01178e-05 0
-5.16129e-05 4.20948e-05 0
-5.24e-05 5e-05 0
-5.05983e-05 4.84325e-05 0
-5.31201e-05 3.70361e-05 0
-5.072e-05 3.7867e-05 0
-5.23982e-05 3.88328e-05 0
-4.8341e-05 4.69132e-05 0
-4.83679e-05 4.87539e-05 0
-5.28367e-05 3.46817e-05 0
-5.5e-05 3.25e-05 0
-5.25657e-05 3.28474e-05 0
-4.98e-05 5e-05 0
-5.30382e-05 3.125e-05 0
-4.19243e-05 4.77545e-05 0
-4.40015e-05 4.7335e-05 0
-4.25917e-05 4.63678e-05 0
-4.35138e-05 2.62661e-05 0
-4.14982e-05 2.74462e-05 0
-4.35654e-05 2.85217e-05 0
-4.59e-05 4.84239e-05 0
-4.36852e-05 4.87027e-05 0
-4.46e-05 5e-05 0
-5.33308e-05 2.92503e-05 0
-5.5e-05 2.75e-05 0
-5.23377e-05 2.76953e-05 0
-4.25282e-05 4.46352e-05 0
-4.09368e-05 4.35728e-05 0
-4.06302e-05 4.55143e-05 0
0.0002009 4.95e-05 0
0.0001998 5e-05 0
0.000199875 4.9375e-05 0
0.00019885 4.925e-05 0
0.0001972 5e-05 0
0.000197825 4.9125e-05 0
0.0001968 4.9e-05 0
0.000195775 4.8875e-05 0
0.0001946 5e-05 0
0.00019475 4.875e-05 0
0.000193725 4.8625e-05 0
0.000192 5e-05 0
0.0001927 4.85e-05 0
0.000191675 4.8375e-05 0
0.00019065 4.825e-05 0
0.0001894 5e-05 0
0.000189625 4.8125e-05 0
0.0001886 4.8e-05 0
0.0001868 5e-05 0
0.000187575 4.7875e-05 0
0.00018655 4.775e-05 0
0.000185515 4.8575e-05 0
0.0001842 5e-05 0
0.0001845 4.75e-05 0
0.000185525 4.7625e-05 0
0.000182564 4.829e-05 0
0.0001816 5e-05 0
0.00018245 4.725e-05 0
0.000183475 4.7375e-05 0
0.000181425 4.7125e-05 0
0.000180295 4.82657e-05 0
0.000179 5e-05 0
0.000179375 4.6875e-05 0
0.0001804 4.7e-05 0
0.000178168 4.80619e-05 0
0.0001764 5e-05 0
0.000177325 4.6625e-05 0
0.00017835 4.675e-05 0
0.000176428 4.76631e-05 0
0.0001763 4.65e-05 0
0.0001738 5e-05 0
0.0001751 4.84164e-05 0
0.000175275 4.6375e-05 0
0.000174025 4.75632e-05 0
0.0001712 5e-05 0
0.000172615 4.78449e-05 0
0.0001722 4.6e-05 0
0.000173225 4.6125e-05 0
0.00017015 4.575e-05 0
0.000171243 4.7381e-05 0
0.000169554 4.79999e-05 0
0.0001686 5e-05 0
0.000167507 4.79751e-05 0
0.000168498 4.64861e-05 0
0.000166 5e-05 0
0.00016558 4.71459e-05 0
0.000167135 4.62887e-05 0
0.0001681 4.55e-05 0
0.00016605 4.525e-05 0
0.000167075 4.5375e-05 0
0.000164059 4.61599e-05 0
0.00016394 4.79552e-05 0
0.000162881 4.6615e-05 0
0.000162975 4.4875e-05 0
0.000165025 4.5125e-05 0
0.000164 4.5e-05 0
0.000161754 4.58641e-05 0
0.000161722 4.78101e-05 0
0.000159956 4.58294e-05 0
0.000160925 4.4625e-05 0
0.00016195 4.475e-05 0
0.000157667 4.60322e-05 0
0.000158875 4.4375e-05 0
0.000159194 4.80155e-05 0
0.0001599 4.45e-05 0
0.00015785 4.425e-05 0
0.000155808 4.56757e-05 0
0.000155647 4.76701e-05 0
0.000154059 4.66642e-05 0
0.000153756 4.50083e-05 0
0.000154839 4.50446e-05 0
0.000156825 4.4125e-05 0
0.000151954 4.80508e-05 0
0.000154052 4.8477e-05 0
0.000153 5e-05 0
0.000154775 4.3875e-05 0
0.000152142 4.56625e-05 0
0.000152821 4.45753e-05 0
0.00015375 4.375e-05 0
0.0001504 5e-05 0
0.000149644 4.85168e-05 0
0.000151787 4.43178e-05 0
0.000152725 4.3625e-05 0
0.000150675 4.3375e-05 0
0.0001517 4.35e-05 0
0.000148119 4.50887e-05 0
0.000148072 4.75757e-05 0
0.000146584 4.63516e-05 0
0.000150008 4.6396e-05 0
0.000149351 4.4543e-05 0
0.00015061 4.46252e-05 0
0.0001476 4.3e-05 0
0.000148625 4.3125e-05 0
0.000146492 4.82975e-05 0
0.000144888 4.73562e-05 0
0.000146676 4.44259e-05 0
0.000145255 4.53656e-05 0
0.000145652 4.38669e-05 0
0.000141401 4.79821e-05 0
0.0001426 5e-05 0
0.00014 5e-05 0
0.000144374 4.38862e-05 0
0.00014555 4.275e-05 0
0.0001435 4.25e-05 0
0.000144525 4.2625e-05 0
0.000142746 4.38121e-05 0
0.000141288 4.43191e-05 0
0.000141707 4.32778e-05 0
0.00013921 4.38992e-05 0
0.000140355 4.5932e-05 0
0.000138302 4.5922e-05 0
0.000142912 4.58869e-05 0
0.000140592 4.30037e-05 0
0.00014145 4.225e-05 0
0.000136458 4.5869e-05 0
0.000137106 4.4063e-05 0
0.0001394 4.2e-05 0
0.000138259 4.28915e-05 0
0.000137484 4.77094e-05 0
0.000139166 4.78902e-05 0
0.00013586 4.78984e-05 0
0.000133449 4.78649e-05 0
0.000134717 4.61848e-05 0
0.000137256 4.25134e-05 0
0.000135323 4.24541e-05 0
0.000136325 4.1625e-05 0
0.000136122 4.2876e-05 0
0.000131206 4.47284e-05 0
0.000133168 4.56738e-05 0
0.000131773 4.65243e-05 0
0.000134756 4.40343e-05 0
0.000132747 4.36463e-05 0
0.000133483 4.26786e-05 0
0.000131081 4.1867e-05 0
0.000132382 4.22815e-05 0
0.000131507 4.3122e-05 0
0.000131059 4.80123e-05 0
0.00013325 4.125e-05 0
0.00012915 4.075e-05 0
0.00012982 4.18199e-05 0
0.000128915 4.26216e-05 0
0.000126366 4.47574e-05 0
0.000127331 4.30908e-05 0
0.000128781 4.44872e-05 0
0.000125336 4.28376e-05 0
0.000130218 4.31077e-05 0
0.000127894 4.16344e-05 0
0.000124774 4.69608e-05 0
0.000127668 4.64148e-05 0
0.000126591 4.8331e-05 0
0.000126722 4.18415e-05 0
0.000125768 4.11931e-05 0
0.000124326 4.13546e-05 0
0.00012505 4.025e-05 0
0.000122408 4.50118e-05 0
0.000120276 4.47432e-05 0
0.00012139 4.32235e-05 0
0.000124336 4.44132e-05 0
0.000123056 4.27595e-05 0
0.000122977 4.09049e-05 0
0.00012185 4.69217e-05 0
0.000122676 4.85947e-05 0
0.000120525 4.86094e-05 0
0.000121479 4.13153e-05 0
0.000119547 4.24221e-05 0
0.000120249 4.07448e-05 0
0.000119925 3.9625e-05 0
0.000119346 4.06114e-05 0
0.000117479 4.47279e-05 0
0.000114726 4.45259e-05 0
0.00011571 4.27814e-05 0
0.000119443 4.66611e-05 0
0.000117447 4.21596e-05 0
0.000118421 4.0752e-05 0
0.000117409 4.04437e-05 0
0.000116775 4.70073e-05 0
0.0001179 4.855e-05 0
0.000115473 4.84802e-05 0
0.00011685 3.925e-05 0
0.000117875 3.9375e-05 0
0.000115454 4.00551e-05 0
0.0001148 3.9e-05 0
0.000115825 3.9125e-05 0
0.000111704 4.23398e-05 0
0.000113786 4.26731e-05 0
0.000112589 4.43871e-05 0
0.000113234 4.06671e-05 0
0.000114754 4.13371e-05 0
0.0001106 4.42326e-05 0
0.000109703 4.24261e-05 0
0.00011275 3.875e-05 0
0.000113775 3.8875e-05 0
0.000110211 4.80875e-05 0
0.000108244 4.71951e-05 0
0.000109312 4.58413e-05 0
0.000111755 3.99116e-05 0
0.00010944 3.92972e-05 0
0.000110415 4.05876e-05 0
0.000108839 4.07536e-05 0
0.000106472 4.76905e-05 0
0.000107274 4.57868e-05 0
0.000108011 3.92415e-05 0
0.000106885 4.04365e-05 0
0.000106625 3.88708e-05 0
0.000105286 4.19254e-05 0
0.000105055 3.95469e-05 0
0.000104215 4.39764e-05 0
0.000106346 4.40629e-05 0
0.000100945 4.51249e-05 0
0.000102825 4.5614e-05 0
0.000101189 4.68452e-05 0
0.000107625 3.8125e-05 0
0.000105575 3.7875e-05 0
0.0001066 3.8e-05 0
0.000103352 4.76905e-05 0
0.000101803 4.8465e-05 0
0.000103685 3.89398e-05 0
0.00010245 3.8825e-05 0
0.000103525 3.7625e-05 0
0.000101092 3.99779e-05 0
0.000101267 3.82619e-05 0
0.000101382 4.2025e-05 0
0.000103187 4.05286e-05 0
0.000103359 4.24605e-05 0
9.87383e-05 4.5447e-05 0
9.99411e-05 4.35161e-05 0
9.744e-05 4.33145e-05 0
0.00010045 3.725e-05 0
0.000101475 3.7375e-05 0
9.70845e-05 4.65215e-05 0
9.52614e-05 4.67664e-05 0
9.61768e-05 4.49944e-05 0
9.9729e-05 3.87704e-05 0
9.78901e-05 3.9598e-05 0
9.85823e-05 3.81492e-05 0
9.62289e-05 3.93709e-05 0
9.74259e-05 3.81279e-05 0
9.7375e-05 3.6875e-05 0
9.63045e-05 3.76631e-05 0
9.58e-05 5e-05 0
9.32e-05 5e-05 0
9.47542e-05 4.8457e-05 0
9.49675e-05 3.85246e-05 0
9.36214e-05 3.89472e-05 0
9.40006e-05 3.74906e-05 0
9.66411e-05 4.12573e-05 0
9.44241e-05 4.07079e-05 0
9.03569e-05 4.24993e-05 0
9.21701e-05 4.02409e-05 0
9.27439e-05 4.27744e-05 0
8.89795e-05 4.09067e-05 0
9.03071e-05 4.0248e-05 0
9.25447e-05 3.77721e-05 0
9.3275e-05 3.6375e-05 0
9.07708e-05 3.87127e-05 0
9.11303e-05 3.70839e-05 0
9.11933e-05 4.55145e-05 0
9.30678e-05 4.73279e-05 0
9.11886e-05 4.82603e-05 0
8.87724e-05 3.88076e-05 0
8.99595e-05 3.75116e-05 0
9.02e-05 3.6e-05 0
8.89241e-05 3.6954e-05 0
8.36977e-05 4.59472e-05 0
8.36223e-05 4.83578e-05 0
8.20467e-05 4.74142e-05 0
8.71227e-05 4.03557e-05 0
8.61e-05 3.55e-05 0
8.68368e-05 3.65714e-05 0
8.5484e-05 3.6588e-05 0
8.47735e-05 4.02845e-05 0
8.23121e-05 4.21599e-05 0
8.26582e-05 3.98147e-05 0
8.46943e-05 4.2454e-05 0
8.38832e-05 3.78613e-05 0
8.35569e-05 3.63808e-05 0
8.44098e-05 3.6291e-05 0
8.5075e-05 3.5375e-05 0
8.51465e-05 4.77163e-05 0
8.3025e-05 3.5125e-05 0
8.22824e-05 3.68659e-05 0
8.1446e-05 3.57362e-05 0
8.05884e-05 3.71794e-05 0
7.53471e-05 4.77524e-05 0
7.38313e-05 4.73927e-05 0
7.39102e-05 4.61526e-05 0
7.9826e-05 3.58588e-05 0
7.88607e-05 3.76287e-05 0
7.81733e-05 3.57987e-05 0
8.16783e-05 3.84471e-05 0
8.07975e-05 4.04095e-05 0
7.52138e-05 4.04775e-05 0
7.67682e-05 4.17043e-05 0
7.49617e-05 4.21803e-05 0
7.52903e-05 3.84008e-05 0
7.38293e-05 3.93136e-05 0
[...]
CELL_DATA 58684
VECTORS velocity DOUBLE
74.1606 0.337529 0
84.2089 3.34719e-05 0
84.1821 -5.38589e-05 0
84.2161 -0.00329431 0
84.1888 0.003646 0
84.2225 -0.00275338 0
84.1959 0.00300545 0
77.8853 -0.00210537 0
77.9027 -0.0281919 0
78.0209 -0.00265613 0
78.1338 -0.00467375 0
78.1896 -0.372793 0
77.9422 -0.116397 0
78.2701 -0.1228 0
77.9168 -0.201279 0
78.4549 -0.155211 0
77.8826 -0.139539 0
78.81 -0.152382 0
77.9624 -0.327753 0
79.319 -0.110433 0
77.8913 -0.144614 0
78.7764 -0.353698 0
85.3563 -2.1546 0
77.8631 0.0161889 0
77.8678 0.0641512 0
77.8622 0.0319447 0
77.9102 0.165713 0
77.9024 0.0271878 0
77.8996 0.218522 0
78.0165 0.0509093 0
77.8859 0.176937 0
77.9709 0.0344812 0
77.8468 0.17756 0
78.3331 0.147205 0
78.0095 1.04584 0
78.1987 0.0624376 0
77.8947 0.21488 0
78.4073 0.323992 0
84.233 0.00306743 0
84.241 0.000340038 0
84.2537 -0.00778233 0
84.2571 -0.00111401 0
84.2759 0.000596802 0
84.2891 -0.00642096 0
84.2943 -0.00836031 0
84.3015 -0.000841803 0
84.3181 0.00135024 0
84.3302 -0.00870837 0
84.3338 -0.00376691 0
84.3548 0.000921957 0
84.3703 -0.00964883 0
84.376 -0.00980973 0
84.383 -0.00170459 0
84.4022 0.00205912 0
84.4157 -0.0101627 0
84.4197 -0.0058359 0
84.4423 0.00106602 0
84.4601 -0.0125493 0
84.4666 -0.0120275 0
84.4755 -0.00320448 0
84.4989 0.00247608 0
84.5025 -0.0148184 0
84.5284 -0.00812575 0
84.5556 0.00198274 0
84.5549 -0.0175464 0
84.5629 -0.0111317 0
84.583 -0.00812934 0
84.6059 0.00196446 0
84.6081 -0.0155267 0
84.6286 -0.00890807 0
84.6567 0.00131313 0
84.6568 -0.0190087 0
84.6736 -0.0107231 0
84.6923 -0.0250536 0
84.7228 0.00296302 0
84.7295 -0.0183476 0
84.7448 -0.0117419 0
84.7829 0.00255516 0
84.7839 -0.0247132 0
84.8421 -0.0173611 0
84.7968 -0.0189822 0
84.8547 0.00255572 0
84.8803 -0.0163964 0
84.8581 -0.0258701 0
84.9432 -0.0186648 0
84.9222 -0.0220292 0
84.9042 -0.0289759 0
84.9338 -0.0369879 0
85.0074 -0.022856 0
85.0315 -0.031332 0
84.9766 -0.0262431 0
85.0132 -0.0419015 0
85.074 -0.0336459 0
85.0607 -0.0327832 0
85.0713 -0.0442476 0
85.1507 -0.0385947 0
85.1295 -0.0411571 0
85.1282 -0.048809 0
85.1764 -0.0590459 0
85.2115 -0.0463547 0
85.274 -0.0602271 0
85.2036 -0.0448804 0
85.2982 -0.0215807 0
85.2689 -0.0623467 0
85.3223 -0.0583919 0
85.299 -0.0667038 0
85.3629 -0.0224082 0
85.3307 -0.0717239 0
85.3659 -0.0816338 0
85.4482 -0.0501814 0
85.4335 -0.0507516 0
85.3924 -0.0716237 0
85.4577 -0.0921918 0
85.4897 -0.042844 0
85.532 -0.0835277 0
85.5216 -0.0553333 0
85.6266 0.00119624 0
85.5398 -0.0926527 0
85.5752 -0.113548 0
85.6509 -0.0971193 0
85.7128 -0.0764764 0
85.6333 -0.0648521 0
85.6641 -0.113483 0
85.7722 -0.0766253 0
85.7342 -0.122579 0
85.7303 -0.0462166 0
85.7581 -0.106658 0
85.8393 -0.0364757 0
85.7899 -0.12825 0
85.8427 -0.151187 0
85.9508 -0.089977 0
85.9071 -0.124264 0
85.8952 -0.058363 0
85.9808 -0.16338 0
85.9234 -0.0423749 0
85.9323 -0.161769 0
86.0628 -0.176715 0
86.1119 -0.121648 0
86.1447 -0.161981 0
86.0593 -0.150021 0
86.0988 -0.160476 0
86.0861 -0.0781179 0
86.179 -0.185725 0
86.2189 -0.20128 0
86.3144 -0.132151 0
86.183 -0.104914 0
86.2177 -0.172629 0
86.2604 -0.208443 0
86.2457 -0.0377222 0
86.3851 -0.211538 0
86.407 -0.241618 0
86.5096 -0.14202 0
86.3599 -0.142777 0
86.4387 -0.202533 0
86.4766 -0.235367 0
86.4204 -0.0385276 0
86.503 -0.273535 0
86.5902 -0.288922 0
86.644 -0.20477 0
86.6201 -0.233194 0
86.7272 -0.210242 0
86.6646 -0.292681 0
86.7271 -0.0748767 0
86.6858 -0.272182 0
86.8132 -0.265702 0
86.8191 -0.0825733 0
86.9266 -0.310614 0
86.9789 -0.281715 0
86.9638 -0.17319 0
87.0984 -0.133674 0
86.9291 -0.314687 0
86.9931 -0.348269 0
87.0576 -0.0699897 0
87.1189 -0.330732 0
87.2066 -0.339978 0
87.0837 -0.246331 0
87.2127 -0.140545 0
87.2744 -0.206645 0
87.2532 -0.389628 0
87.3733 -0.121454 0
87.3632 -0.349013 0
87.4194 -0.336368 0
87.4591 -0.396021 0
87.4342 0.00230731 0
87.6216 -0.385567 0
87.4447 -0.299378 0
87.6569 -0.25799 0
87.7729 -0.303478 0
87.6906 -0.417685 0
87.7847 -0.421686 0
87.6233 -0.0915624 0
87.8454 -0.398862 0
87.8875 -0.465426 0
87.9089 -0.448502 0
88.1186 -0.0992995 0
87.9006 -0.352494 0
88.138 -0.50219 0
88.2395 -0.384344 0
88.1265 -0.319017 0
88.2352 -0.534789 0
88.2078 -0.526452 0
88.0918 -0.0872952 0
88.363 -0.583155 0
88.4153 -0.543171 0
88.7339 -0.100901 0
88.5617 -0.602651 0
88.3499 -0.415131 0
88.729 -0.381918 0
88.8085 -0.496753 0
88.6435 -0.548657 0
88.6678 -0.646995 0
88.8024 -0.236324 0
88.9019 -0.622215 0
88.8448 -0.72437 0
89.0953 -0.736068 0
89.1071 -0.00652656 0
89.0525 -0.615625 0
89.1176 -0.767979 0
88.9626 -0.193828 0
89.1971 -0.81135 0
89.3469 -0.46675 0
89.2535 -0.850467 0
89.5694 -0.262676 0
89.4724 -0.734441 0
89.4299 -0.869239 0
89.4127 -0.139316 0
89.5992 -0.898103 0
89.8276 -0.883937 0
89.6571 -0.755825 0
89.73 -0.453502 0
89.8637 -1.02324 0
89.9171 -0.40121 0
90.1114 -0.068181 0
89.8065 -0.799444 0
90.0023 -1.01239 0
90.1072 -1.09332 0
90.1764 -0.340622 0
90.2812 -0.94076 0
90.4579 -1.03258 0
90.2643 -0.115909 0
90.6248 -1.00281 0
90.5303 -1.12569 0
90.3784 -0.832529 0
90.4549 -0.398297 0
90.5736 -0.46471 0
90.7036 -1.12783 0
90.6236 -0.00694409 0
90.8239 -1.20408 0
90.9721 -1.13391 0
90.925 -1.19808 0
90.8646 -0.254127 0
91.029 -0.966061 0
91.2976 -0.967423 0
90.8168 -0.0055374 0
91.4002 -1.14968 0
91.5646 -0.958245 0
91.1922 -0.705206 0
90.9899 -0.288682 0
91.5742 -1.08792 0
91.1552 -0.356147 0
90.9119 -0.0150821 0
91.472 -0.720222 0
91.8343 -0.964808 0
91.993 -0.891102 0
91.09 -0.0693638 0
91.8987 -0.590512 0
92.0747 -0.782429 0
90.9176 0.0368997 0
92.2036 -0.749426 0
92.3743 -0.601165 0
91.9514 -0.199527 0
90.6297 0.00884359 0
92.5046 -0.359124 0
91.5668 0.225786 0
91.7926 0.339625 0
92.3577 -0.215781 0
92.1228 0.0311129 0
92.7893 0.0398306 0
90.7331 0.386084 0
92.7827 -0.0558364 0
92.2833 0.489852 0
92.9325 0.593334 0
90.6619 0.110282 0
92.8501 1.27702 0
92.6137 1.4967 0
89.2271 0.199234 0
93.0743 0.988908 0
92.95 1.441 0
90.59 1.49841 0
90.3591 0.717816 0
91.9043 1.15816 0
92.835 1.96091 0
89.4841 0.332168 0
92.3276 2.83253 0
93.0026 2.21043 0
93.0136 2.43041 0
88.7033 1.41596 0
91.355 2.94717 0
92.3724 3.2104 0
88.6905 0.233256 0
92.1873 3.70525 0
91.844 3.57634 0
90.8753 5.17845 0
86.3988 0.394113 0
92.0043 4.8846 0
90.023 3.52709 0
88.1573 1.56393 0
87.7694 2.97604 0
91.7716 5.38318 0
90.6458 5.82384 0
86.8411 0.60689 0
90.7162 6.64123 0
84.2062 -0.00240526 0
84.2149 -0.000430491 0
84.2268 0.00710382 0
84.2304 0.0004738 0
84.2481 -0.00056568 0
84.2609 0.00608219 0
84.2658 0.00672823 0
84.2736 -0.000592649 0
84.2891 -0.00124754 0
84.3012 0.00879235 0
84.3046 0.00361784 0
84.3252 -0.000956976 0
84.3401 0.00894534 0
84.3458 0.00922474 0
84.3528 0.00168233 0
84.3719 -0.00209435 0
84.3851 0.00967333 0
84.3894 0.0053124 0
84.4118 -0.00110673 0
84.4293 0.0123097 0
84.4358 0.0117806 0
84.4624 0.0157866 0
84.4447 0.00284747 0
84.4828 0.0092339 0
84.5135 0.0133722 0
84.4973 0.00812653 0
84.532 0.0114106 0
84.5522 0.0081311 0
84.5698 0.0189944 0
84.5467 0.0110242 0
84.5974 0.00902847 0
84.6172 0.0214921 0
84.5992 0.0117167 0
84.6615 0.025481 0
84.6714 0.0219792 0
84.6868 0.0158648 0
84.6535 0.0135013 0
84.6987 0.018469 0
84.7402 0.0142713 0
84.714 0.011887 0
84.783 0.0307709 0
84.7922 0.0120083 0
84.8117 0.0171758 0
84.7776 0.0174275 0
84.8277 0.0256383 0
84.8744 0.0288109 0
84.9124 0.0187867 0
84.8748 0.029961 0
84.9212 0.0312157 0
84.9326 0.0365189 0
85.0005 0.0140627 0
84.9771 0.0230076 0
85.0017 0.0315947 0
85.0322 0.047659 0
85.0723 0.0199127 0
85.064 0.0330547 0
85.0876 0.051879 0
85.151 0.0338654 0
85.0978 0.0407473 0
85.1463 0.0595021 0
85.1552 0.0579107 0
85.1974 0.0376521 0
85.2291 0.025589 0
85.2436 0.0591638 0
85.1181 0.0200764 0
85.2687 0.0662516 0
85.3357 0.0817657 0
85.3095 0.0699418 0
85.2889 0.0394571 0
85.3678 0.0856985 0
85.3851 0.0723877 0
85.4625 0.0420818 0
85.364 0.0716645 0
85.4439 0.0809406 0
85.4799 0.0952867 0
85.4011 0.0220826 0
85.4714 0.0704665 0
85.5495 0.111822 0
85.4973 0.0560736 0
85.5723 0.092673 0
85.6392 0.120787 0
85.6078 0.0915079 0
85.6705 0.0348675 0
85.6656 0.109619 0
85.6947 0.119831 0
85.7143 0.0325383 0
85.7446 0.136911 0
85.6973 0.104979 0
85.7925 0.109257 0
85.7365 0.076261 0
85.8143 0.151512 0
85.927 0.180577 0
85.8991 0.0425514 0
85.8709 0.125951 0
85.9767 0.191023 0
85.9533 0.141395 0
85.8712 0.0574652 0
86.0089 0.179872 0
86.0538 0.18871 0
86.0317 0.0449222 0
86.0908 0.0753436 0
86.1174 0.162665 0
86.1413 0.219316 0
86.0517 0.119292 0
86.1962 0.202389 0
86.2389 0.223742 0
86.2882 0.0690416 0
86.2224 0.128757 0
86.3263 0.246771 0
86.3292 0.2097 0
86.1908 0.0715169 0
86.3684 0.23458 0
86.4492 0.243829 0
86.4429 0.090593 0
86.4008 0.214068 0
86.5495 0.285617 0
86.5366 0.222413 0
86.3565 0.0759568 0
86.591 0.261618 0
86.7093 0.311611 0
86.5557 0.0896218 0
86.6968 0.247376 0
86.687 0.111755 0
86.771 0.255628 0
86.6477 0.15423 0
86.8091 0.32011 0
86.9085 0.307207 0
86.7975 0.083872 0
86.8962 0.304615 0
87.024 0.339966 0
87.0003 0.0824955 0
86.8524 0.262967 0
87.0199 0.289367 0
87.1053 0.332645 0
86.9608 0.0574412 0
87.1283 0.300803 0
87.2918 0.383675 0
87.2702 0.319393 0
87.2076 0.0938552 0
87.3904 0.3292 0
87.1127 0.12992 0
87.138 0.292611 0
87.367 0.366254 0
87.5369 0.398287 0
87.5581 0.408272 0
87.1584 0.00304323 0
87.7055 0.458346 0
87.7284 0.442052 0
87.7795 0.388776 0
87.7062 0.187201 0
87.8644 0.193413 0
87.7932 0.434239 0
87.4729 0.120052 0
87.9729 0.473936 0
87.9671 0.473215 0
87.9884 0.426104 0
87.8622 0.126836 0
88.1008 0.461742 0
88.2783 0.580326 0
88.1115 0.221762 0
88.0248 0.228496 0
88.2367 0.474753 0
88.4526 0.595493 0
87.91 0.141879 0
88.5092 0.635035 0
88.5684 0.61552 0
88.3634 0.119684 0
88.7591 0.711855 0
88.8045 0.678978 0
88.9163 0.591505 0
88.6494 0.258108 0
88.5999 0.28791 0
88.7927 0.660244 0
88.4674 0.186386 0
89.0069 0.791255 0
89.0781 0.744112 0
89.0937 0.696218 0
88.7867 0.103003 0
89.3031 0.817866 0
89.3283 0.840479 0
89.1572 0.465739 0
89.47 0.665802 0
89.1938 0.381459 0
89.4036 0.811085 0
89.049 0.235773 0
89.597 0.951225 0
89.6293 0.919819 0
89.1178 0.198097 0
89.7271 0.854554 0
89.9424 0.986295 0
89.8385 0.964761 0
89.7516 0.223324 0
90.1917 1.0381 0
90.2461 1.11307 0
89.6652 0.661932 0
90.1366 0.824455 0
89.7587 0.404147 0
90.4736 1.17406 0
89.9836 0.125702 0
90.5487 1.14015 0
90.545 1.07898 0
89.7709 0.101456 0
90.4668 0.975178 0
90.9089 1.14897 0
91.0109 1.1539 0
90.428 0.288477 0
91.0907 1.12098 0
91.144 1.19417 0
90.3909 0.732107 0
91.1391 0.779731 0
90.5958 0.278943 0
91.3229 1.18135 0
90.6219 0.102863 0
91.476 1.0921 0
91.5662 1.06815 0
90.444 0.0748438 0
91.3617 0.881791 0
91.8561 0.966248 0
92.0134 0.893657 0
90.8829 0.177874 0
91.8428 0.837984 0
92.1423 0.819916 0
91.4547 0.748414 0
91.8841 0.396542 0
90.9532 0.109067 0
91.9004 0.74286 0
90.9477 0.0396762 0
92.3715 0.691646 0
92.4504 0.5415 0
90.8595 0.0387059 0
92.1224 0.23644 0
92.5767 0.239417 0
92.7432 0.0951309 0
90.886 -0.105634 0
92.8142 -0.121154 0
92.8514 -0.248266 0
91.0183 -0.282988 0
92.8555 -0.293846 0
92.0218 -0.696256 0
91.3394 -0.111621 0
91.1541 -0.0075027 0
92.9648 -0.590309 0
92.7111 -0.9588 0
93.1227 -1.15301 0
90.7734 -0.00514734 0
92.3906 -1.39279 0
93.096 -1.87063 0
90.7074 -0.12681 0
92.2336 -1.35533 0
93.0571 -2.39513 0
91.6485 -1.80057 0
90.6593 -0.67324 0
92.862 -2.73243 0
92.7173 -3.01736 0
91.6384 -1.15498 0
91.0357 -3.15731 0
89.0105 -2.59191 0
92.3657 -3.04265 0
89.4386 -0.408134 0
92.3408 -3.98001 0
89.7963 7.23698 0
90.524 6.47085 0
85.1357 1.91191 0
89.6926 7.19474 0
87.4622 6.58474 0
89.0364 7.82237 0
85.7268 0.752299 0
88.0601 8.02451 0
86.8921 7.89814 0
84.4765 0.954915 0
86.9651 8.42094 0
92.2511 -4.38974 0
89.6847 -0.25355 0
91.987 -4.72895 0
90.7563 -5.11811 0
90.2006 -4.40941 0
88.7852 -0.268959 0
90.9977 -5.70255 0
85.6651 7.69257 0
90.3528 -6.96503 0
88.5308 -1.39591 0
90.0318 -6.73416 0
89.1725 -7.68992 0
83.3189 2.34236 0
88.7386 -7.54734 0
89.9361 -4.22017 0
89.2278 -6.8391 0
87.3637 -5.06318 0
86.4284 -0.834013 0
88.2909 -6.94426 0
87.5023 -7.35132 0
85.042 8.11652 0
87.5743 -7.36362 0
87.2616 -0.452473 0
86.5461 -7.71213 0
86.0346 -8.41337 0
85.75 -0.560506 0
84.9458 -8.55461 0
85.4479 -6.27693 0
83.5819 -0.646168 0
83.9343 -8.70249 0
83.9949 -4.82159 0
85.7089 -3.80456 0
84.4771 -7.45031 0
83.3655 -7.79575 0
86.0285 4.3623 0
82.4122 0.523894 0
85.4333 2.91703 0
84.0933 -0.0732452 0
82.8219 -8.45715 0
84.6648 7.6849 0
82.1356 0.380253 0
84.09 6.53431 0
81.9543 -8.32051 0
83.6601 -1.69983 0
81.2302 -6.06953 0
84.0869 8.76152 0
81.0058 2.01476 0
83.9861 8.68507 0
81.7553 7.23831 0
81.3032 0.409415 0
82.3927 7.6099 0
81.8448 -6.31374 0
83.1731 -0.469916 0
81.0981 -8.44642 0
81.1156 -8.21453 0
82.769 8.17583 0
80.8348 7.79424 0
80.5957 0.0375128 0
81.9031 8.04567 0
80.0122 5.04431 0
80.5997 2.28004 0
80.1724 -8.39766 0
81.0834 -1.09226 0
80.5052 -8.27273 0
79.7075 8.24247 0
79.5405 -7.67179 0
80.1938 -1.08046 0
79.8076 -3.38903 0
78.27 -7.37399 0
81.2977 -4.0708 0
78.1285 -7.13464 0
79.678 -0.290108 0
77.2035 -6.82045 0
79.3385 2.86626 0
79.9585 0.461308 0
79.2669 6.92124 0
79.3264 0.115025 0
79.072 8.12034 0
78.7807 7.62496 0
79.0023 0.182459 0
78.0071 6.67899 0
78.7704 0.126377 0
78.5854 -6.37507 0
79.6787 -0.578985 0
79.8226 5.9991 0
77.8812 0.704678 0
77.5504 6.27655 0
77.0848 -6.78277 0
79.7924 -0.23055 0
75.4425 -5.80234 0
77.8654 -0.468853 0
76.2638 -5.71276 0
78.5826 2.54732 0
77.8515 0.149294 0
79.3015 -5.19859 0
77.8579 -0.140864 0
75.5566 -5.37659 0
76.9484 5.66776 0
76.9473 -4.26059 0
77.8765 -0.284909 0
75.8521 -4.61924 0
77.9365 3.14604 0
75.7595 1.99614 0
76.4396 4.90905 0
77.602 -0.9207 0
75.7056 -5.10959 0
77.802 0.428233 0
76.3808 6.60557 0
77.6884 -2.35395 0
77.8558 -0.106995 0
75.3592 -4.61053 0
76.1023 5.90611 0
77.8075 0.687344 0
76.0298 4.62768 0
75.7557 4.56559 0
77.7844 0.405219 0
74.9477 4.06522 0
74.5085 -4.14547 0
77.8241 -0.331374 0
74.2114 -4.13201 0
76.5376 -1.97208 0
77.842 -0.237492 0
73.5699 -2.8217 0
75.0238 5.05127 0
77.7148 0.594759 0
76.2333 3.25009 0
74.178 -2.56431 0
77.7103 -0.322624 0
73.5246 -2.33409 0
73.9027 3.72459 0
77.7121 0.269321 0
74.2939 3.50409 0
74.579 2.86677 0
77.8478 0.0397129 0
73.7601 3.04555 0
74.846 -1.51578 0
77.6491 -0.518521 0
74.1432 -1.33301 0
72.9882 -0.846866 0
77.0051 -0.893578 0
73.0352 -0.714787 0
76.7182 0.935363 0
77.7561 0.0869388 0
75.8412 2.43544 0
73.5397 2.45673 0
77.6039 0.0571528 0
73.114 1.55156 0
77.3259 -0.223007 0
77.8271 -0.137336 0
73.0325 -0.2358 0
73.5456 -0.0934945 0
77.7796 -0.0725852 0
75.7392 0.308629 0
73.7151 0.528858 0
77.8008 -0.0721497 0
77.1623 -5.63058 0
77.9199 -0.449965 0
77.8386 0.167208 0
78.0207 6.83926 0
78.9808 -7.67869 0
82.0448 -0.937108 0
80.4366 0.993955 0
81.6694 8.54942 0
77.7669 0.302485 0
74.4736 4.83539 0
73.929 -2.82548 0
77.7955 -0.238429 0
77.8646 -0.575175 0
77.521 -3.66739 0
77.9333 0.747233 0
77.8971 0.234598 0
77.7659 0.000131475 0
73.6008 2.04926 0
79.2861 0.464613 0
78.3518 1.51684 0
78.6871 -1.33848 0
80.2441 -0.691293 0
85.8382 -1.26089 0
85.4227 -8.40132 0
87.3164 8.02023 0
85.372 0.465132 0
77.6947 1.59307 0
79.6212 7.93888 0
78.5358 -7.03177 0
79.227 -2.31807 0
76.8239 -1.42997 0
74.5356 -0.22101 0
76.138 5.80069 0
78.0265 1.83229 0
77.8595 -1.72242 0
74.734 -4.61456 0
91.7374 -5.35864 0
88.4654 -0.659341 0
88.0394 0.787105 0
92.181 4.47208 0
77.9286 -0.760922 0
77.8903 -0.0568418 0
77.8795 0.173373 0
78.9246 0.73804 0
83.111 0.725863 0
82.7414 4.06424 0
81.2006 -1.9741 0
84.3065 -1.73039 0
81.6547 4.85222 0
84.5993 8.2467 0
83.4276 -8.61856 0
82.5509 -1.90115 0
86.604 1.60173 0
87.6915 4.99572 0
86.2524 -2.77355 0
87.4027 -0.0420013 0
90.6423 -0.25703 0
93.0751 -1.3907 0
92.9564 0.611424 0
89.8034 0.0283095 0
90.9101 0.00401788 0
92.4873 0.511293 0
92.2569 -0.509893 0
91.0237 0.0389047 0
78.9862 -1.43185 0
78.4441 -0.535196 0
78.3313 1.16997 0
79.1622 0.942888 0
78.1716 1.14041 0
77.8754 0.281589 0
77.8543 -0.133319 0
78.095 -1.04163 0
89.4771 0.95473 0
90.7131 1.89388 0
89.8016 -1.14975 0
90.029 -0.171974 0
75.8676 -0.955746 0
77.798 -0.169242 0
77.371 -0.414907 0
77.8182 -0.400052 0
77.8273 0.243293 0
77.8195 0.898881 0
91.6389 1.00229 0
90.7581 0.160995 0
90.876 -0.00544389 0
91.3626 -1.10657 0
81.6703 -0.0364972 0
80.8909 -2.80784 0
81.9723 1.78723 0
80.6641 0.447811 0
77.7703 4.04588 0
77.3061 7.27028 0
77.0429 -6.22933 0
78.2365 -3.23055 0
78.7421 -2.10069 0
77.4539 -2.19826 0
77.873 4.62948 0
78.1574 2.19921 0
91.0208 0.0543879 0
90.7196 0.148118 0
90.9318 -0.0507124 0
91.9538 0.0598566 0
79.7313 -5.38412 0
80.8262 -5.21507 0
80.4064 4.60538 0
80.9607 8.46942 0
79.0462 -3.97199 0
80.2417 -2.31023 0
80.0741 3.10622 0
79.2233 1.5361 0
90.8342 1.22417 0
90.2416 0.149037 0
90.4956 -0.010946 0
90.3571 -1.0981 0
77.2145 0.96963 0
77.8164 0.036588 0
90.9414 -0.0571227 0
91.6095 -0.343488 0
91.3123 0.247496 0
90.7934 0.039281 0
78.7913 -0.924282 0
78.305 -1.25803 0
79.101 1.73775 0
78.2025 0.671243 0
77.8868 -0.178797 0
78.1241 -0.643427 0
77.9629 0.32468 0
77.8588 0.170133 0
74.0257 1.7101 0
76.8665 1.50069 0
87.0091 -3.13497 0
90.3415 -6.3181 0
91.3028 5.77345 0
86.7216 2.26244 0
76.7256 -2.30765 0
74.6656 -2.89655 0
89.438 0.159189 0
89.7129 0.922981 0
88.4912 0.077159 0
89.2599 0.858922 0
89.7286 -0.89487 0
89.6009 -0.143592 0
88.9471 -0.70668 0
88.9146 -0.00777358 0
90.6639 -0.225604 0
90.7864 -0.649447 0
90.6273 0.4095 0
90.3775 0.0069692 0
77.8234 0.205343 0
77.5937 0.510574 0
76.3521 0.445302 0
74.1201 0.844399 0
77.7173 -0.251238 0
77.811 -0.197117 0
77.2724 0.258978 0
77.2103 -0.714689 0
92.8575 -2.78595 0
89.7205 -1.75309 0
90.7018 2.22914 0
93.0465 1.68328 0
78.0359 -0.0608198 0
78.1263 -0.338313 0
77.8963 0.0628621 0
78.2992 0.237581 0
90.0216 -0.214 0
90.02 -0.558174 0
90.0675 0.37544 0
89.6106 0.117597 0
88.1975 0.161998 0
88.4255 0.529094 0
88.4337 -0.61854 0
88.3383 -0.153303 0
78.4352 -0.83682 0
79.3509 -2.13821 0
78.7882 1.59373 0
78.4114 1.21997 0
79.1102 2.88564 0
77.5026 1.79913 0
78.062 -1.8688 0
78.7357 -2.79616 0
91.3441 -0.561552 0
92.3763 0.231528 0
92.5586 -0.221945 0
91.7686 0.607498 0
77.6097 -1.07797 0
77.7345 -1.28515 0
77.7567 1.00842 0
77.2498 1.25474 0
88.1566 0.550861 0
87.7525 0.172702 0
87.8483 -0.101431 0
88.0558 -0.471907 0
85.1256 4.23641 0
87.1318 7.08211 0
86.6206 -8.33999 0
86.1635 -3.32412 0
75.1437 -3.41692 0
77.48 -3.51415 0
84.7464 -3.03832 0
85.3901 -1.09001 0
83.7523 0.44986 0
87.0532 3.09112 0
74.751 4.60476 0
76.6341 2.72892 0
89.2401 -0.0517877 0
89.4093 -0.557208 0
89.2919 0.375884 0
89.1927 0.104495 0
88.9059 -0.370541 0
88.6789 -1.51168 0
89.2304 2.08596 0
88.256 0.272475 0
83.119 1.38309 0
81.3843 0.346579 0
82.5073 -0.332253 0
83.1578 -3.07932 0
91.2798 0.31997 0
91.6095 0.861728 0
91.7713 -0.938202 0
91.5743 -0.0349794 0
82.1472 -3.79199 0
83.2456 -1.81834 0
82.4667 2.68294 0
85.014 5.9426 0
87.5287 0.35322 0
87.3688 0.0666164 0
87.654 -0.102307 0
87.4786 -0.379474 0
88.495 -0.187468 0
88.7504 -0.00370834 0
88.7089 0.0990015 0
88.4173 0.432575 0
79.9053 0.498304 0
79.6598 1.30526 0
79.9191 -1.1494 0
80.7777 -0.315866 0
81.4396 2.80008 0
79.8095 1.95072 0
79.1817 -2.83492 0
78.3385 -2.85931 0
90.6757 -0.492459 0
90.4164 -0.28419 0
90.2254 0.381574 0
91.1891 0.646686 0
79.807 3.82636 0
80.3182 2.56064 0
79.2696 -0.824148 0
79.1008 -0.291776 0
78.937 0.259318 0
79.6643 0.889361 0
76.4792 -0.863281 0
77.4569 -1.28054 0
92.2227 -3.6631 0
89.7668 -2.06688 0
89.2277 3.73733 0
92.6113 3.72475 0
77.8516 -0.811183 0
77.8752 -0.17589 0
77.8043 0.235494 0
77.9255 0.791071 0
78.2335 0.079524 0
78.2468 0.570689 0
78.3968 -0.313017 0
78.5364 -0.018614 0
75.3471 -0.268417 0
73.047 0.151818 0
85.1279 3.20027 0
89.182 2.96709 0
87.8801 -2.50345 0
88.476 -4.94608 0
77.5151 2.02635 0
77.0631 1.11871 0
77.8503 -0.0300328 0
77.5748 -0.0477151 0
80.3687 6.77673 0
78.2453 4.05408 0
80.0024 -4.27001 0
79.0355 -8.03928 0
77.2856 0.739432 0
77.7144 0.424357 0
90.6629 0.545742 0
91.0427 1.19567 0
90.7052 -1.09604 0
90.6425 -0.211645 0
87.8814 -0.127216 0
88.2153 -0.082622 0
88.1821 0.0694215 0
87.9614 0.410924 0
92.8677 0.510615 0
91.6568 1.40912 0
91.7584 -0.59637 0
92.9745 -0.779523 0
77.383 0.101377 0
76.7788 -1.7317 0
78.0661 1.33132 0
78.3036 1.87732 0