# vtk DataFile Version 3.0
Unstructured Grid for Triangles
ASCII
DATASET UNSTRUCTURED_GRID
POINTS 29612 DOUBLE
-2.72397e-05 1.23686e-06 0
-2.95789e-05 9.5838e-07 0
-2.77865e-05 -3.1235e-07 0
0.0002024 5e-05 0
0.000203975 4.9875e-05 0
0.000205 5e-05 0
0.000203975 -4.9875e-05 0
0.0002024 -5e-05 0
0.000205 -5e-05 0
0.00020295 4.975e-05 0
0.00020295 -4.975e-05 0
0.000201925 4.9625e-05 0
0.000201925 -4.9625e-05 0
-5.29747e-05 -4.79887e-05 0
-5.5e-05 -5e-05 0
-5.24e-05 -5e-05 0
-5.05983e-05 -4.84325e-05 0
-4.98e-05 -5e-05 0
-4.72e-05 -5e-05 0
-4.83864e-05 -4.87761e-05 0
-4.46e-05 -5e-05 0
-4.59e-05 -4.84239e-05 0
-4.29453e-05 -4.24878e-05 0
-4.47486e-05 -4.20717e-05 0
-4.41829e-05 -4.36609e-05 0
-5.12578e-05 -4.62101e-05 0
-4.93077e-05 -4.53594e-05 0
-5.0706e-05 -4.39006e-05 0
-4.19243e-05 -4.77545e-05 0
-4.40307e-05 -4.71837e-05 0
-4.3691e-05 -4.86724e-05 0
-5.16129e-05 -4.20948e-05 0
-4.95355e-05 -4.15432e-05 0
-5.11646e-05 -4.0128e-05 0
-3.94697e-05 -4.81197e-05 0
-4.06302e-05 -4.55143e-05 0
-5.37257e-05 -3.88197e-05 0
-5.31099e-05 -4.07297e-05 0
-5.23982e-05 -3.88328e-05 0
-3.70063e-05 -4.72956e-05 0
-3.68e-05 -5e-05 0
-3.5308e-05 -4.85302e-05 0
-5.072e-05 -3.7867e-05 0
-4.85506e-05 -3.83975e-05 0
-4.90949e-05 -3.59622e-05 0
-3.37127e-05 -4.84331e-05 0
-3.16e-05 -5e-05 0
-3.26495e-05 -4.7415e-05 0
-5.5e-05 -3.5e-05 0
-5.31201e-05 -3.70361e-05 0
-5.28367e-05 -3.46817e-05 0
-3.63898e-05 -4.48809e-05 0
-3.83315e-05 -4.60336e-05 0
-3.26269e-06 -4.15503e-05 0
-5.99662e-06 -4.09556e-05 0
-5.46944e-06 -4.29488e-05 0
-5.29747e-05 4.79887e-05 0
-5.5e-05 5e-05 0
-5.5e-05 4.75e-05 0
-5.5e-05 4.5e-05 0
-5.34834e-05 4.29171e-05 0
-5.26943e-05 4.42611e-05 0
-5.34026e-05 4.60176e-05 0
-5.31099e-05 4.07297e-05 0
-5.11672e-05 4.01178e-05 0
-5.16129e-05 4.20948e-05 0
-5.24e-05 5e-05 0
-5.05983e-05 4.84325e-05 0
-5.31201e-05 3.70361e-05 0
-5.072e-05 3.7867e-05 0
-5.23982e-05 3.88328e-05 0
-4.8341e-05 4.69132e-05 0
-4.83679e-05 4.87539e-05 0
-5.28367e-05 3.46817e-05 0
-5.5e-05 3.25e-05 0
-5.25657e-05 3.28474e-05 0
-4.98e-05 5e-05 0
-5.30382e-05 3.125e-05 0
-4.19243e-05 4.77545e-05 0
-4.40015e-05 4.7335e-05 0
-4.25917e-05 4.63678e-05 0
-4.35138e-05 2.62661e-05 0
-4.14982e-05 2.74462e-05 0
-4.35654e-05 2.85217e-05 0
-4.59e-05 4.84239e-05 0
-4.36852e-05 4.87027e-05 0
-4.46e-05 5e-05 0
-5.33308e-05 2.92503e-05 0
-5.5e-05 2.75e-05 0
-5.23377e-05 2.76953e-05 0
-4.25282e-05 4.46352e-05 0
-4.09368e-05 4.35728e-05 0
-4.06302e-05 4.55143e-05 0
0.0002009 4.95e-05 0
0.0001998 5e-05 0
0.000199875 4.9375e-05 0
0.00019885 4.925e-05 0
0.0001972 5e-05 0
0.000197825 4.9125e-05 0
0.0001968 4.9e-05 0
0.000195775 4.8875e-05 0
0.0001946 5e-05 0
0.00019475 4.875e-05 0
0.000193725 4.8625e-05 0
0.000192 5e-05 0
0.0001927 4.85e-05 0
0.000191675 4.8375e-05 0
0.00019065 4.825e-05 0
0.0001894 5e-05 0
0.000189625 4.8125e-05 0
0.0001886 4.8e-05 0
0.0001868 5e-05 0
0.000187575 4.7875e-05 0
0.00018655 4.775e-05 0
0.000185515 4.8575e-05 0
0.0001842 5e-05 0
0.0001845 4.75e-05 0
0.000185525 4.7625e-05 0
0.000182564 4.829e-05 0
0.0001816 5e-05 0
0.00018245 4.725e-05 0
0.000183475 4.7375e-05 0
0.000181425 4.7125e-05 0
0.000180295 4.82657e-05 0
0.000179 5e-05 0
0.000179375 4.6875e-05 0
0.0001804 4.7e-05 0
0.000178168 4.80619e-05 0
0.0001764 5e-05 0
0.000177325 4.6625e-05 0
0.00017835 4.675e-05 0
0.000176428 4.76631e-05 0
0.0001763 4.65e-05 0
0.0001738 5e-05 0
0.0001751 4.84164e-05 0
0.000175275 4.6375e-05 0
0.000174025 4.75632e-05 0
0.0001712 5e-05 0
0.000172615 4.78449e-05 0
0.0001722 4.6e-05 0
0.000173225 4.6125e-05 0
0.00017015 4.575e-05 0
0.000171243 4.7381e-05 0
0.000169554 4.79999e-05 0
0.0001686 5e-05 0
0.000167507 4.79751e-05 0
0.000168498 4.64861e-05 0
0.000166 5e-05 0
0.00016558 4.71459e-05 0
0.000167135 4.62887e-05 0
0.0001681 4.55e-05 0
0.00016605 4.525e-05 0
0.000167075 4.5375e-05 0
0.000164059 4.61599e-05 0
0.00016394 4.79552e-05 0
0.000162881 4.6615e-05 0
0.000162975 4.4875e-05 0
0.000165025 4.5125e-05 0
0.000164 4.5e-05 0
0.000161754 4.58641e-05 0
0.000161722 4.78101e-05 0
0.000159956 4.58294e-05 0
0.000160925 4.4625e-05 0
0.00016195 4.475e-05 0
0.000157667 4.60322e-05 0
0.000158875 4.4375e-05 0
0.000159194 4.80155e-05 0
0.0001599 4.45e-05 0
0.00015785 4.425e-05 0
0.000155808 4.56757e-05 0
0.000155647 4.76701e-05 0
0.000154059 4.66642e-05 0
0.000153756 4.50083e-05 0
0.000154839 4.50446e-05 0
0.000156825 4.4125e-05 0
0.000151954 4.80508e-05 0
0.000154052 4.8477e-05 0
0.000153 5e-05 0
0.000154775 4.3875e-05 0
0.000152142 4.56625e-05 0
0.000152821 4.45753e-05 0
0.00015375 4.375e-05 0
0.0001504 5e-05 0
0.000149644 4.85168e-05 0
0.000151787 4.43178e-05 0
0.000152725 4.3625e-05 0
0.000150675 4.3375e-05 0
0.0001517 4.35e-05 0
0.000148119 4.50887e-05 0
0.000148072 4.75757e-05 0
0.000146584 4.63516e-05 0
0.000150008 4.6396e-05 0
0.000149351 4.4543e-05 0
0.00015061 4.46252e-05 0
0.0001476 4.3e-05 0
0.000148625 4.3125e-05 0
0.000146492 4.82975e-05 0
0.000144888 4.73562e-05 0
0.000146676 4.44259e-05 0
0.000145255 4.53656e-05 0
0.000145652 4.38669e-05 0
0.000141401 4.79821e-05 0
0.0001426 5e-05 0
0.00014 5e-05 0
0.000144374 4.38862e-05 0
0.00014555 4.275e-05 0
0.0001435 4.25e-05 0
0.000144525 4.2625e-05 0
0.000142746 4.38121e-05 0
0.000141288 4.43191e-05 0
0.000141707 4.32778e-05 0
0.00013921 4.38992e-05 0
0.000140355 4.5932e-05 0
0.000138302 4.5922e-05 0
0.000142912 4.58869e-05 0
0.000140592 4.30037e-05 0
0.00014145 4.225e-05 0
0.000136458 4.5869e-05 0
0.000137106 4.4063e-05 0
0.0001394 4.2e-05 0
0.000138259 4.28915e-05 0
0.000137484 4.77094e-05 0
0.000139166 4.78902e-05 0
0.00013586 4.78984e-05 0
0.000133449 4.78649e-05 0
0.000134717 4.61848e-05 0
0.000137256 4.25134e-05 0
0.000135323 4.24541e-05 0
0.000136325 4.1625e-05 0
0.000136122 4.2876e-05 0
0.000131206 4.47284e-05 0
0.000133168 4.56738e-05 0
0.000131773 4.65243e-05 0
0.000134756 4.40343e-05 0
0.000132747 4.36463e-05 0
0.000133483 4.26786e-05 0
0.000131081 4.1867e-05 0
0.000132382 4.22815e-05 0
0.000131507 4.3122e-05 0
0.000131059 4.80123e-05 0
0.00013325 4.125e-05 0
0.00012915 4.075e-05 0
0.00012982 4.18199e-05 0
0.000128915 4.26216e-05 0
0.000126366 4.47574e-05 0
0.000127331 4.30908e-05 0
0.000128781 4.44872e-05 0
0.000125336 4.28376e-05 0
0.000130218 4.31077e-05 0
0.000127894 4.16344e-05 0
0.000124774 4.69608e-05 0
0.000127668 4.64148e-05 0
0.000126591 4.8331e-05 0
0.000126722 4.18415e-05 0
0.000125768 4.11931e-05 0
0.000124326 4.13546e-05 0
0.00012505 4.025e-05 0
0.000122408 4.50118e-05 0
0.000120276 4.47432e-05 0
0.00012139 4.32235e-05 0
0.000124336 4.44132e-05 0
0.000123056 4.27595e-05 0
0.000122977 4.09049e-05 0
0.00012185 4.69217e-05 0
0.000122676 4.85947e-05 0
0.000120525 4.86094e-05 0
0.000121479 4.13153e-05 0
0.000119547 4.24221e-05 0
0.000120249 4.07448e-05 0
0.000119925 3.9625e-05 0
0.000119346 4.06114e-05 0
0.000117479 4.47279e-05 0
0.000114726 4.45259e-05 0
0.00011571 4.27814e-05 0
0.000119443 4.66611e-05 0
0.000117447 4.21596e-05 0
0.000118421 4.0752e-05 0
0.000117409 4.04437e-05 0
0.000116775 4.70073e-05 0
0.0001179 4.855e-05 0
0.000115473 4.84802e-05 0
0.00011685 3.925e-05 0
0.000117875 3.9375e-05 0
0.000115454 4.00551e-05 0
0.0001148 3.9e-05 0
0.000115825 3.9125e-05 0
0.000111704 4.23398e-05 0
0.000113786 4.26731e-05 0
0.000112589 4.43871e-05 0
0.000113234 4.06671e-05 0
0.000114754 4.13371e-05 0
0.0001106 4.42326e-05 0
0.000109703 4.24261e-05 0
0.00011275 3.875e-05 0
0.000113775 3.8875e-05 0
0.000110211 4.80875e-05 0
0.000108244 4.71951e-05 0
0.000109312 4.58413e-05 0
0.000111755 3.99116e-05 0
0.00010944 3.92972e-05 0
0.000110415 4.05876e-05 0
0.000108839 4.07536e-05 0
0.000106472 4.76905e-05 0
0.000107274 4.57868e-05 0
0.000108011 3.92415e-05 0
0.000106885 4.04365e-05 0
0.000106625 3.88708e-05 0
0.000105286 4.19254e-05 0
0.000105055 3.95469e-05 0
0.000104215 4.39764e-05 0
0.000106346 4.40629e-05 0
0.000100945 4.51249e-05 0
0.000102825 4.5614e-05 0
0.000101189 4.68452e-05 0
0.000107625 3.8125e-05 0
0.000105575 3.7875e-05 0
0.0001066 3.8e-05 0
0.000103352 4.76905e-05 0
0.000101803 4.8465e-05 0
0.000103685 3.89398e-05 0
0.00010245 3.8825e-05 0
0.000103525 3.7625e-05 0
0.000101092 3.99779e-05 0
0.000101267 3.82619e-05 0
0.000101382 4.2025e-05 0
0.000103187 4.05286e-05 0
0.000103359 4.24605e-05 0
9.87383e-05 4.5447e-05 0
9.99411e-05 4.35161e-05 0
9.744e-05 4.33145e-05 0
0.00010045 3.725e-05 0
0.000101475 3.7375e-05 0
9.70845e-05 4.65215e-05 0
9.52614e-05 4.67664e-05 0
9.61768e-05 4.49944e-05 0
9.9729e-05 3.87704e-05 0
9.78901e-05 3.9598e-05 0
9.85823e-05 3.81492e-05 0
9.62289e-05 3.93709e-05 0
9.74259e-05 3.81279e-05 0
9.7375e-05 3.6875e-05 0
9.63045e-05 3.76631e-05 0
9.58e-05 5e-05 0
9.32e-05 5e-05 0
9.47542e-05 4.8457e-05 0
9.49675e-05 3.85246e-05 0
9.36214e-05 3.89472e-05 0
9.40006e-05 3.74906e-05 0
9.66411e-05 4.12573e-05 0
9.44241e-05 4.07079e-05 0
9.03569e-05 4.24993e-05 0
9.21701e-05 4.02409e-05 0
9.27439e-05 4.27744e-05 0
8.89795e-05 4.09067e-05 0
9.03071e-05 4.0248e-05 0
9.25447e-05 3.77721e-05 0
9.3275e-05 3.6375e-05 0
9.07708e-05 3.87127e-05 0
9.11303e-05 3.70839e-05 0
9.11933e-05 4.55145e-05 0
9.30678e-05 4.73279e-05 0
9.11886e-05 4.82603e-05 0
8.87724e-05 3.88076e-05 0
8.99595e-05 3.75116e-05 0
9.02e-05 3.6e-05 0
8.89241e-05 3.6954e-05 0
8.36977e-05 4.59472e-05 0
8.36223e-05 4.83578e-05 0
8.20467e-05 4.74142e-05 0
8.71227e-05 4.03557e-05 0
8.61e-05 3.55e-05 0
8.68368e-05 3.65714e-05 0
8.5484e-05 3.6588e-05 0
8.47735e-05 4.02845e-05 0
8.23121e-05 4.21599e-05 0
8.26582e-05 3.98147e-05 0
8.46943e-05 4.2454e-05 0
8.38832e-05 3.78613e-05 0
8.35569e-05 3.63808e-05 0
8.44098e-05 3.6291e-05 0
8.5075e-05 3.5375e-05 0
8.51465e-05 4.77163e-05 0
8.3025e-05 3.5125e-05 0
8.22824e-05 3.68659e-05 0
8.1446e-05 3.57362e-05 0
8.05884e-05 3.71794e-05 0
7.53471e-05 4.77524e-05 0
7.38313e-05 4.73927e-05 0
7.39102e-05 4.61526e-05 0
7.9826e-05 3.58588e-05 0
7.88607e-05 3.76287e-05 0
7.81733e-05 3.57987e-05 0
8.16783e-05 3.84471e-05 0
8.07975e-05 4.04095e-05 0
7.52138e-05 4.04775e-05 0
7.67682e-05 4.17043e-05 0
7.49617e-05 4.21803e-05 0
7.52903e-05 3.84008e-05 0
7.38293e-05 3.93136e-05 0
[...]
CELL_DATA 58684
VECTORS velocity DOUBLE
74.0292 0.337181 0
85.4327 -0.000194739 0
85.4053 0.000168502 0
85.4374 -0.0020685 0
85.4091 0.00221844 0
85.4434 -0.00208839 0
85.4152 0.00212857 0
77.8625 -0.00280595 0
77.8691 -0.023505 0
77.9473 -0.00400896 0
78.0406 -0.0069129 0
78.09 -0.407252 0
77.8899 -0.109755 0
78.1632 -0.134199 0
77.873 -0.185427 0
78.34 -0.171963 0
77.8626 -0.111556 0
78.6663 -0.15671 0
77.909 -0.317096 0
79.1434 -0.113773 0
77.8768 -0.11367 0
78.6406 -0.367599 0
84.9588 -2.17254 0
77.8557 0.0116756 0
77.8524 0.0512958 0
77.8556 0.0249447 0
77.8753 0.140693 0
77.8688 0.0225171 0
77.8744 0.18833 0
77.9463 0.0492556 0
77.873 0.144557 0
77.9099 0.0321132 0
77.8344 0.144774 0
78.2269 0.163406 0
77.9452 1.12946 0
78.0988 0.067475 0
77.8857 0.176446 0
78.2947 0.354394 0
85.4505 0.000810277 0
85.4552 -0.000399624 0
85.4647 -0.00547634 0
85.4682 -0.00247297 0
85.4776 -0.000921739 0
85.4855 -0.00541825 0
85.4888 -0.00657932 0
85.493 -0.00253569 0
85.5009 -0.000596192 0
85.5076 -0.00736497 0
85.5099 -0.004797 0
85.5189 -0.00144615 0
85.527 -0.00838544 0
85.5292 -0.00842417 0
85.5323 -0.00425416 0
85.5403 -0.00106174 0
85.5465 -0.00923716 0
85.548 -0.0069149 0
85.5569 -0.002202 0
85.5655 -0.0113659 0
85.5675 -0.0109494 0
85.5701 -0.0058074 0
85.5804 -0.000772988 0
85.5823 -0.0126083 0
85.5914 -0.00875924 0
85.6029 -0.000605501 0
85.6038 -0.0157512 0
85.6071 -0.0127232 0
85.6149 -0.01093 0
85.6227 -0.00112759 0
85.6247 -0.0153233 0
85.6324 -0.0115605 0
85.6425 -0.00210772 0
85.6434 -0.0174955 0
85.6494 -0.0126919 0
85.6573 -0.0211727 0
85.6673 -0.000996141 0
85.6698 -0.0161045 0
85.6761 -0.0104729 0
85.69 -0.00191119 0
85.6918 -0.0217953 0
85.7149 -0.0181962 0
85.6959 -0.0174378 0
85.7169 -0.00102611 0
85.726 -0.0116581 0
85.7193 -0.0227423 0
85.7511 -0.013892 0
85.745 -0.018419 0
85.7407 -0.0256834 0
85.7535 -0.0306103 0
85.7784 -0.0197758 0
85.7929 -0.0279511 0
85.768 -0.0235948 0
85.7854 -0.0340254 0
85.8066 -0.0260161 0
85.8014 -0.0265753 0
85.8103 -0.0363805 0
85.8451 -0.0346204 0
85.828 -0.029537 0
85.8346 -0.0385997 0
85.8543 -0.045269 0
85.8631 -0.0344928 0
85.8905 -0.0412908 0
85.865 -0.0357396 0
85.8946 -0.0118424 0
85.8941 -0.045965 0
85.9161 -0.0438848 0
85.9065 -0.0469299 0
85.9213 -0.0141753 0
85.9225 -0.050414 0
85.9399 -0.0552163 0
85.9643 -0.03181 0
85.9595 -0.0342236 0
85.9431 -0.0464374 0
85.9794 -0.0600148 0
85.9813 -0.0247679 0
86.0116 -0.0553859 0
85.999 -0.0359047 0
86.0407 -0.00263853 0
86.0225 -0.0628943 0
86.0389 -0.0708024 0
86.074 -0.0635658 0
86.0976 -0.0480666 0
86.0493 -0.0385207 0
86.0835 -0.0727063 0
86.1261 -0.049205 0
86.1176 -0.0764946 0
86.0944 -0.0266368 0
86.1318 -0.0693904 0
86.1524 -0.0258795 0
86.146 -0.0808525 0
86.1753 -0.0933014 0
86.2167 -0.0558648 0
86.2063 -0.0771053 0
86.1812 -0.0358339 0
86.249 -0.101593 0
86.1953 -0.0286338 0
86.2254 -0.100644 0
86.2974 -0.114211 0
86.3146 -0.0804475 0
86.3334 -0.0992861 0
86.2862 -0.0959853 0
86.3162 -0.104975 0
86.2869 -0.0462938 0
86.3635 -0.121858 0
86.3903 -0.134012 0
86.4308 -0.0888232 0
86.348 -0.0641675 0
86.3879 -0.114937 0
86.4104 -0.136636 0
86.376 -0.0269884 0
86.4853 -0.147497 0
86.4981 -0.162981 0
86.5497 -0.100758 0
86.4558 -0.088111 0
86.5161 -0.136486 0
86.5388 -0.164933 0
86.4826 -0.0289106 0
86.5575 -0.190422 0
86.6118 -0.20501 0
86.6337 -0.146109 0
86.626 -0.167949 0
86.6861 -0.155909 0
86.6585 -0.213326 0
86.67 -0.0559778 0
86.67 -0.200457 0
86.7512 -0.206478 0
86.7313 -0.0680931 0
86.824 -0.246929 0
86.8554 -0.228599 0
86.8371 -0.144507 0
86.9114 -0.112154 0
86.8269 -0.252083 0
86.8673 -0.27832 0
86.881 -0.0570464 0
86.9489 -0.283772 0
87.0038 -0.29286 0
86.9209 -0.210149 0
86.995 -0.132391 0
87.037 -0.175731 0
87.0355 -0.334629 0
87.0913 -0.114851 0
87.1096 -0.313143 0
87.1458 -0.308229 0
87.1707 -0.360674 0
87.1305 -0.00421558 0
87.2815 -0.360885 0
87.1605 -0.278164 0
87.296 -0.252371 0
87.3715 -0.29532 0
87.3333 -0.400057 0
87.3973 -0.40492 0
87.2582 -0.0910059 0
87.4401 -0.393349 0
87.4675 -0.454523 0
87.4832 -0.43752 0
87.5983 -0.102074 0
87.4698 -0.348297 0
87.6493 -0.503964 0
87.7109 -0.383556 0
87.6276 -0.322953 0
87.7162 -0.533844 0
87.6977 -0.526075 0
87.5838 -0.0908825 0
87.8124 -0.58711 0
87.8529 -0.55061 0
88.0596 -0.105033 0
87.9615 -0.606121 0
87.7961 -0.422352 0
88.0736 -0.386907 0
88.1407 -0.499788 0
88.0223 -0.550313 0
88.047 -0.656161 0
88.1218 -0.237469 0
88.2357 -0.632183 0
88.1843 -0.730465 0
88.3903 -0.740558 0
88.3587 -0.0101609 0
88.3438 -0.611945 0
88.4049 -0.76697 0
88.2434 -0.190217 0
88.4734 -0.807859 0
88.5792 -0.46394 0
88.5217 -0.8451 0
88.7604 -0.259392 0
88.7094 -0.725103 0
88.6703 -0.855833 0
88.6171 -0.132474 0
88.8217 -0.882735 0
89.0197 -0.859952 0
88.8569 -0.7354 0
88.9088 -0.441734 0
89.0535 -0.989964 0
89.0764 -0.387099 0
89.2546 -0.0667671 0
88.9999 -0.777195 0
89.1807 -0.978446 0
89.2733 -1.05266 0
89.3196 -0.328327 0
89.4344 -0.905688 0
89.6013 -0.990791 0
89.4094 -0.1125 0
89.7616 -0.962209 0
89.6658 -1.0775 0
89.5233 -0.799084 0
89.5983 -0.384839 0
89.7188 -0.449042 0
89.8347 -1.0817 0
89.7931 -0.00557801 0
89.9489 -1.1545 0
90.0955 -1.0921 0
90.0476 -1.15182 0
90.0515 -0.249095 0
90.1713 -0.936703 0
90.4388 -0.944307 0
90.0317 -0.00365041 0
90.5311 -1.12495 0
90.7272 -0.951427 0
90.3549 -0.69028 0
90.1879 -0.284388 0
90.7183 -1.07674 0
90.3575 -0.350797 0
90.1927 -0.0155808 0
90.6551 -0.71983 0
91 -0.972981 0
91.1769 -0.904401 0
90.3702 -0.0700998 0
91.1369 -0.610988 0
91.2726 -0.805226 0
90.2495 0.0342414 0
91.4212 -0.79039 0
91.6206 -0.65385 0
91.2402 -0.217736 0
90.0274 0.0111689 0
91.7896 -0.420596 0
90.929 0.216595 0
91.1691 0.329312 0
91.6639 -0.267891 0
91.4419 -0.00490104 0
92.1397 -0.0192227 0
90.1602 0.384062 0
92.1217 -0.124403 0
91.6786 0.45207 0
92.3401 0.535165 0
90.0711 0.112565 0
92.3054 1.24656 0
92.0795 1.47814 0
88.7404 0.199901 0
92.5302 0.937949 0
92.436 1.42011 0
90.0899 1.50542 0
89.8305 0.719573 0
91.3629 1.15107 0
92.3385 1.95794 0
88.9904 0.334414 0
91.8498 2.85215 0
92.5185 2.20586 0
92.5327 2.43467 0
88.2481 1.42922 0
90.8804 2.97188 0
91.9097 3.24294 0
88.2267 0.236661 0
91.7251 3.74664 0
91.3803 3.61596 0
90.4238 5.24198 0
85.9822 0.397813 0
91.5513 4.94993 0
89.5702 3.56706 0
87.714 1.57833 0
87.3395 3.00441 0
91.3199 5.45592 0
90.1945 5.89351 0
86.4185 0.612677 0
90.2634 6.7222 0
85.422 -0.000467594 0
85.427 0.000342966 0
85.4356 0.00494603 0
85.439 0.00191611 0
85.4477 0.000924245 0
85.4554 0.00513832 0
85.4583 0.00557139 0
85.4627 0.0018876 0
85.47 0.000656942 0
85.4766 0.00703187 0
85.4787 0.00454176 0
85.4873 0.00141952 0
85.495 0.00785112 0
85.4972 0.00801158 0
85.5002 0.00404309 0
85.5081 0.00104957 0
85.5141 0.00903051 0
85.5159 0.00658214 0
85.5248 0.00218605 0
85.5332 0.0113348 0
85.5352 0.0108344 0
85.5467 0.0137014 0
85.5378 0.00569743 0
85.5552 0.00910526 0
85.5677 0.0142029 0
85.559 0.00891944 0
85.575 0.0131431 0
85.583 0.0111474 0
85.5901 0.0176034 0
85.5795 0.0088647 0
85.6003 0.0117551 0
85.6086 0.0195984 0
85.6004 0.00938205 0
85.6258 0.0222351 0
85.6295 0.0196635 0
85.6357 0.0155861 0
85.6219 0.0116732 0
85.6387 0.0166062 0
85.6564 0.0159429 0
85.6451 0.0107886 0
85.6733 0.0270174 0
85.6737 0.010288 0
85.6848 0.0185317 0
85.6692 0.0142066 0
85.6893 0.0231403 0
85.7113 0.0261533 0
85.7213 0.0142639 0
85.7084 0.0240863 0
85.7307 0.0286373 0
85.7343 0.0308749 0
85.7598 0.0158502 0
85.7493 0.0200285 0
85.7637 0.0282443 0
85.7787 0.0397565 0
85.7884 0.0190962 0
85.793 0.0319972 0
85.8025 0.0417343 0
85.8192 0.0247662 0
85.7987 0.0296648 0
85.8264 0.0463733 0
85.8294 0.0438149 0
85.8404 0.0281583 0
85.8525 0.0201536 0
85.8625 0.0410839 0
85.8019 0.0139147 0
85.8785 0.0474517 0
85.9122 0.0562026 0
85.8953 0.0477096 0
85.8808 0.0287913 0
85.926 0.0566614 0
85.9335 0.0502943 0
85.9556 0.0250181 0
85.9166 0.0472317 0
85.9592 0.0530151 0
85.9767 0.0616628 0
85.9255 0.0150508 0
85.9654 0.0440795 0
86.0137 0.0712126 0
85.9753 0.0364881 0
86.0256 0.0633301 0
86.0574 0.0759144 0
86.0331 0.0558809 0
86.0533 0.0228189 0
86.0687 0.0663932 0
86.087 0.0780621 0
86.0695 0.0203801 0
86.1124 0.0860295 0
86.0793 0.0620949 0
86.1379 0.0718444 0
86.0966 0.048786 0
86.1483 0.0935271 0
86.2117 0.113693 0
86.1712 0.0283754 0
86.169 0.0777317 0
86.2385 0.120999 0
86.2165 0.0857382 0
86.1578 0.0349328 0
86.2559 0.112341 0
86.2805 0.11921 0
86.2413 0.0293487 0
86.2885 0.0535845 0
86.3164 0.104492 0
86.3334 0.13912 0
86.2621 0.0740209 0
86.3661 0.135568 0
86.3889 0.145608 0
86.3958 0.0494842 0
86.3695 0.0899445 0
86.4414 0.163725 0
86.4365 0.139776 0
86.3345 0.0466375 0
86.4629 0.157295 0
86.5151 0.168646 0
86.492 0.0670648 0
86.4793 0.144372 0
86.5761 0.20264 0
86.5638 0.155056 0
86.4338 0.0493441 0
86.6022 0.189282 0
86.6761 0.232592 0
86.5558 0.0666241 0
86.6637 0.184772 0
86.6435 0.0858175 0
86.7097 0.194997 0
86.6196 0.109834 0
86.7407 0.247049 0
86.8029 0.248092 0
86.7079 0.0684735 0
86.7936 0.242756 0
86.8763 0.281081 0
86.8378 0.0716207 0
86.7621 0.20452 0
86.8696 0.240844 0
86.9289 0.28526 0
86.8081 0.0437575 0
86.9433 0.260285 0
87.051 0.339262 0
87.0327 0.284791 0
86.9684 0.0857683 0
87.1125 0.298449 0
86.9164 0.10938 0
86.9463 0.250882 0
87.0998 0.32994 0
87.2163 0.374516 0
87.2281 0.384288 0
86.9368 0.00587305 0
87.3331 0.438258 0
87.3468 0.426085 0
87.3778 0.377919 0
87.312 0.185244 0
87.4264 0.201123 0
87.3913 0.422531 0
87.1494 0.114589 0
87.523 0.476056 0
87.5143 0.468517 0
87.5245 0.4214 0
87.4134 0.122442 0
87.612 0.468469 0
87.7436 0.585851 0
87.6001 0.219605 0
87.5382 0.23213 0
87.7045 0.474519 0
87.8791 0.608686 0
87.4512 0.14373 0
87.921 0.644432 0
87.9649 0.62623 0
87.7754 0.122625 0
88.1168 0.718303 0
88.1535 0.688467 0
88.2342 0.594369 0
88.0028 0.260719 0
87.9654 0.295115 0
88.1397 0.665862 0
87.8603 0.190283 0
88.3172 0.794945 0
88.3764 0.749131 0
88.3819 0.691912 0
88.1034 0.104785 0
88.5651 0.814795 0
88.5861 0.832984 0
88.4197 0.467433 0
88.695 0.656191 0
88.4417 0.379108 0
88.6476 0.798607 0
88.3197 0.24063 0
88.8175 0.930112 0
88.8465 0.898353 0
88.3671 0.192785 0
88.9273 0.828635 0
89.1238 0.954084 0
89.029 0.932732 0
88.9192 0.217398 0
89.3507 0.997308 0
89.3989 1.06608 0
88.8602 0.645027 0
89.2937 0.790228 0
88.9316 0.393132 0
89.6115 1.1214 0
89.1328 0.122175 0
89.6824 1.08829 0
89.6802 1.02956 0
88.9344 0.0968283 0
89.6131 0.933248 0
90.0296 1.10033 0
90.1307 1.1092 0
89.5713 0.2803 0
90.2131 1.08064 0
90.2657 1.15343 0
89.5347 0.703743 0
90.2876 0.75611 0
89.7491 0.270405 0
90.446 1.14916 0
89.7839 0.0994471 0
90.6066 1.06925 0
90.7045 1.0515 0
89.5936 0.0718956 0
90.5229 0.869891 0
91.0196 0.97463 0
91.195 0.907239 0
90.0742 0.173743 0
91.0235 0.848768 0
91.3467 0.854371 0
90.6243 0.738114 0
91.142 0.415992 0
90.1763 0.106777 0
91.1046 0.764529 0
90.2056 0.0382542 0
91.6111 0.741588 0
91.7056 0.589221 0
90.0856 0.039003 0
91.4101 0.27672 0
91.8719 0.296632 0
92.0718 0.157141 0
90.2494 -0.101888 0
92.17 -0.0525905 0
92.2214 -0.191139 0
90.4119 -0.282646 0
92.239 -0.223568 0
91.4395 -0.668914 0
90.6633 -0.103984 0
90.4591 -0.00637894 0
92.3849 -0.522391 0
92.148 -0.920427 0
92.5874 -1.10537 0
90.1411 -0.0076709 0
91.869 -1.37133 0
92.5983 -1.8504 0
90.1166 -0.129163 0
91.6969 -1.33606 0
92.5797 -2.3956 0
91.1528 -1.8036 0
90.1105 -0.672652 0
92.391 -2.74546 0
92.2542 -3.0387 0
91.0917 -1.14478 0
90.5741 -3.1879 0
88.5626 -2.61735 0
91.898 -3.06955 0
88.9476 -0.41388 0
91.8878 -4.02838 0
89.3476 7.31575 0
90.0712 6.54725 0
84.7456 1.93088 0
89.2468 7.27002 0
87.0325 6.6435 0
88.5916 7.89828 0
85.3228 0.760098 0
87.6218 8.09572 0
86.4647 7.96125 0
84.0985 0.962954 0
86.5343 8.48894 0
91.8015 -4.44642 0
89.1814 -0.255621 0
91.5384 -4.79066 0
90.3107 -5.1795 0
89.7561 -4.46014 0
88.3182 -0.272276 0
90.5501 -5.77318 0
85.255 7.74822 0
89.9045 -7.0456 0
88.0809 -1.4113 0
89.5854 -6.80886 0
88.7292 -7.76899 0
82.9665 2.36523 0
88.2971 -7.62117 0
89.4948 -4.26901 0
88.7862 -6.91006 0
86.9457 -5.11002 0
86.0089 -0.841971 0
87.8573 -7.0111 0
87.075 -7.41621 0
84.6341 8.17512 0
87.1442 -7.42976 0
86.8295 -0.457716 0
86.1272 -7.77421 0
85.6161 -8.47861 0
85.3427 -0.566388 0
84.5404 -8.61625 0
85.048 -6.32853 0
83.2182 -0.655999 0
83.5363 -8.76513 0
83.6287 -4.86086 0
85.3107 -3.83612 0
84.0838 -7.50681 0
82.9878 -7.85182 0
85.6207 4.4009 0
82.0823 0.530453 0
85.0376 2.94181 0
83.7184 -0.0758337 0
82.4417 -8.51538 0
84.2648 7.74195 0
81.8174 0.384464 0
83.7071 6.58373 0
81.5882 -8.37689 0
83.2968 -1.71483 0
80.9103 -6.11243 0
83.6871 8.82096 0
80.7298 2.02048 0
83.5874 8.74505 0
81.4148 7.28402 0
81.0133 0.411465 0
82.0283 7.66398 0
81.5052 -6.36403 0
82.822 -0.472564 0
80.7456 -8.50366 0
80.7663 -8.26959 0
82.394 8.23158 0
80.5021 7.84114 0
80.3442 0.0428432 0
81.5443 8.09879 0
79.7435 5.06853 0
80.3353 2.28169 0
79.8336 -8.44865 0
80.7972 -1.09435 0
80.1657 -8.32391 0
79.3775 8.29096 0
79.2226 -7.71775 0
79.9535 -1.07455 0
79.5716 -3.39109 0
77.9776 -7.41003 0
81.002 -4.10056 0
77.8405 -7.16659 0
79.4718 -0.290664 0
76.9351 -6.84528 0
79.13 2.85827 0
79.7331 0.460575 0
78.9673 6.96108 0
79.1505 0.117773 0
78.752 8.16765 0
78.4762 7.66225 0
78.8459 0.185776 0
77.7338 6.70455 0
78.6401 0.133625 0
78.3213 -6.40632 0
79.4684 -0.574409 0
79.5374 6.03271 0
77.862 0.73307 0
77.2942 6.29455 0
76.8242 -6.80524 0
79.5806 -0.228991 0
75.2115 -5.81906 0
77.859 -0.440216 0
76.0337 -5.7272 0
78.4252 2.54349 0
77.8526 0.120718 0
79.0475 -5.21213 0
77.8539 -0.112721 0
75.3426 -5.3916 0
76.7133 5.67869 0
76.7587 -4.25327 0
77.8626 -0.240748 0
75.6565 -4.61695 0
77.7798 3.13414 0
75.646 1.98748 0
76.2261 4.90949 0
77.5808 -0.981817 0
75.4932 -5.11634 0
77.797 0.402033 0
76.1258 6.62645 0
77.5747 -2.37088 0
77.855 -0.0838364 0
75.1706 -4.61615 0
75.8635 5.91927 0
77.7995 0.71528 0
75.8386 4.62566 0
75.5565 4.565 0
77.7897 0.381261 0
74.7678 4.06618 0
74.3143 -4.14379 0
77.8263 -0.293779 0
74.0136 -4.13773 0
76.4339 -1.9694 0
77.8449 -0.199483 0
73.3979 -2.81948 0
74.8178 5.0587 0
77.7195 0.618163 0
76.0908 3.24023 0
74.0126 -2.56025 0
77.7266 -0.311791 0
73.3631 -2.33263 0
73.7117 3.72111 0
77.7353 0.263617 0
74.1171 3.50598 0
74.4232 2.85919 0
77.8522 0.0341523 0
73.5831 3.04649 0
74.7238 -1.50703 0
77.6582 -0.538239 0
74.0075 -1.32882 0
72.8219 -0.845668 0
76.9556 -0.920298 0
72.8731 -0.716506 0
76.6505 0.956999 0
77.7755 0.0793941 0
75.7085 2.42493 0
73.3649 2.45301 0
77.6259 0.0591016 0
72.9431 1.54972 0
77.3245 -0.234464 0
77.8343 -0.112518 0
72.8719 -0.235336 0
73.4017 -0.0920758 0
77.7971 -0.0657141 0
75.6442 0.306103 0
73.5688 0.524585 0
77.8146 -0.0617247 0
76.9368 -5.64117 0
77.8873 -0.431287 0
77.8373 0.133524 0
77.7431 6.86548 0
78.6673 -7.72211 0
81.7255 -0.943245 0
80.1765 0.994957 0
81.3047 8.60315 0
77.7778 0.27962 0
74.2668 4.83988 0
73.7622 -2.82869 0
77.7977 -0.202519 0
77.8331 -0.572657 0
77.3476 -3.65834 0
77.8823 0.799899 0
77.8957 0.197653 0
77.7861 -0.000206069 0
73.4396 2.04767 0
79.1075 0.464855 0
78.2425 1.57122 0
78.5548 -1.37113 0
79.9979 -0.689071 0
85.432 -1.27432 0
85.0122 -8.464 0
86.8844 8.08728 0
84.9757 0.4697 0
77.6181 1.65904 0
79.2973 7.98452 0
78.2498 -7.06415 0
79.0389 -2.30969 0
76.7575 -1.45595 0
74.4101 -0.219153 0
75.9023 5.81363 0
77.9289 1.88456 0
77.7723 -1.78537 0
74.5402 -4.62097 0
91.2906 -5.42893 0
88.0095 -0.665574 0
87.5964 0.796311 0
91.7254 4.53133 0
77.877 -0.813288 0
77.868 -0.0435123 0
77.852 0.148511 0
78.778 0.754322 0
82.764 0.73815 0
82.394 4.10442 0
80.9068 -1.98718 0
83.9301 -1.74702 0
81.3273 4.89131 0
84.1977 8.30541 0
83.0382 -8.67948 0
82.2134 -1.91888 0
86.1866 1.61545 0
87.2635 5.04274 0
85.8417 -2.7976 0
86.966 -0.0440222 0
90.0692 -0.257346 0
92.5528 -1.3562 0
92.375 0.547283 0
89.2888 0.0304615 0
90.1786 0.00145993 0
91.7508 0.569779 0
91.5225 -0.556217 0
90.351 0.0421833 0
78.8317 -1.44328 0
78.3244 -0.571965 0
78.2303 1.23432 0
78.9964 0.946507 0
78.0846 1.22197 0
77.8618 0.2384 0
77.851 -0.107455 0
78.0215 -1.12255 0
88.998 0.963993 0
90.2262 1.90748 0
89.3143 -1.15955 0
89.5019 -0.173673 0
75.7807 -0.957283 0
77.8147 -0.154761 0
77.3715 -0.4389 0
77.8248 -0.371921 0
77.8324 0.205906 0
77.7811 0.965802 0
90.7861 0.995152 0
89.9308 0.15571 0
90.1169 -0.00285403 0
90.4908 -1.07804 0
81.3636 -0.0417277 0
80.6169 -2.82093 0
81.6515 1.80334 0
80.3965 0.447985 0
77.5924 4.03264 0
77.029 7.30123 0
76.7965 -6.2443 0
78.0784 -3.21687 0
78.593 -2.10455 0
77.3572 -2.22523 0
77.6678 4.62731 0
78.0369 2.22001 0
90.3618 0.0533864 0
90.1144 0.145289 0
90.2779 -0.0522245 0
91.2514 0.0855678 0
79.4535 -5.41412 0
80.521 -5.25378 0
80.1274 4.63376 0
80.6113 8.52209 0
78.8305 -3.97189 0
79.9938 -2.31108 0
79.8231 3.11367 0
79.0474 1.53217 0
89.9558 1.17109 0
89.3847 0.142876 0
89.6514 -0.00988387 0
89.503 -1.05093 0
77.174 1.00986 0
77.8279 0.0307636 0
90.1865 -0.056359 0
90.8464 -0.351063 0
90.5505 0.245627 0
89.9961 0.0381641 0
78.6543 -0.953293 0
78.2054 -1.32776 0
78.9325 1.73762 0
78.1149 0.735092 0
77.8738 -0.146126 0
78.0511 -0.695569 0
77.9093 0.31473 0
77.8502 0.136231 0
73.8817 1.70898 0
76.7868 1.51976 0
86.5928 -3.16302 0
89.8977 -6.38971 0
90.8492 5.84936 0
86.3048 2.28446 0
76.6071 -2.30355 0
74.5101 -2.89059 0
88.6394 0.159151 0
88.918 0.896512 0
87.8698 0.0755684 0
88.5286 0.853642 0
88.9324 -0.874588 0
88.7826 -0.142443 0
88.2659 -0.711789 0
88.201 -0.0130033 0
89.828 -0.217879 0
89.9294 -0.629484 0
89.7777 0.39631 0
89.5241 0.00656684 0
77.8318 0.179733 0
77.599 0.53625 0
76.287 0.452358 0
73.9791 0.84351 0
77.7384 -0.247094 0
77.8195 -0.17014 0
77.2675 0.275122 0
77.1794 -0.745579 0
92.3907 -2.79999 0
89.2487 -1.76915 0
90.2275 2.25062 0
92.5407 1.65828 0
77.958 -0.0641381 0
78.0371 -0.366063 0
77.8691 0.0508525 0
78.1935 0.259999 0
89.1687 -0.208352 0
89.178 -0.541564 0
89.2158 0.362278 0
88.7906 0.116288 0
87.6593 0.167536 0
87.8533 0.53384 0
87.8655 -0.623382 0
87.7623 -0.151231 0
78.3304 -0.896654 0
79.1668 -2.12696 0
78.64 1.60875 0
78.3004 1.27003 0
78.9228 2.87358 0
77.4189 1.84514 0
77.9606 -1.91752 0
78.5651 -2.78428 0
90.7438 -0.55048 0
91.6821 0.285842 0
91.8552 -0.276814 0
91.1678 0.594133 0
77.5714 -1.14316 0
77.6785 -1.35985 0
77.7228 1.07805 0
77.1926 1.3005 0
87.6552 0.551587 0
87.3453 0.164186 0
87.4138 -0.102712 0
87.588 -0.469503 0
84.7358 4.27192 0
86.7043 7.14289 0
86.196 -8.40727 0
85.7607 -3.35379 0
74.9834 -3.41246 0
77.3195 -3.50425 0
84.3665 -3.06461 0
84.9919 -1.09859 0
83.3882 0.453105 0
86.6321 3.12045 0
74.5578 4.61084 0
76.5163 2.72411 0
88.4685 -0.0515644 0
88.6417 -0.552651 0
88.5223 0.366875 0
88.4284 0.100889 0
88.433 -0.372574 0
88.224 -1.52654 0
88.7736 2.10652 0
87.8032 0.27442 0
82.7755 1.39515 0
81.085 0.350051 0
82.1722 -0.334773 0
82.8055 -3.11096 0
90.5042 0.321058 0
90.7782 0.860831 0
90.9423 -0.937628 0
90.87 -0.0468719 0
81.8228 -3.82838 0
82.8967 -1.8379 0
82.1332 2.70855 0
84.6193 5.99033 0
87.2049 0.332574 0
87.0758 0.062908 0
87.2759 -0.10087 0
87.1847 -0.345762 0
87.8813 -0.187629 0
88.0712 -0.00795424 0
88.0398 0.103162 0
87.8384 0.438069 0
79.6866 0.495125 0
79.4527 1.29958 0
79.6987 -1.14541 0
80.5082 -0.316511 0
81.1428 2.82162 0
79.5968 1.94517 0
78.9841 -2.82826 0
78.1875 -2.85148 0
90.1105 -0.492073 0
89.8617 -0.283462 0
89.6913 0.381985 0
90.6133 0.642895 0
79.5547 3.83838 0
80.0673 2.56263 0
79.0932 -0.821486 0
78.9372 -0.291356 0
78.7914 0.264323 0
79.457 0.887456 0
76.4054 -0.87025 0
77.4027 -1.34209 0
91.7638 -3.70176 0
89.3057 -2.08995 0
88.7835 3.77882 0
92.1517 3.76845 0
77.8146 -0.863745 0
77.8716 -0.140674 0
77.8058 0.200089 0
77.8879 0.841527 0
78.133 0.0876187 0
78.1467 0.622473 0
78.2856 -0.344108 0
78.4192 -0.0208135 0
75.2354 -0.266647 0
72.8883 0.150986 0
84.7374 3.22523 0
88.7342 2.99696 0
87.4457 -2.526 0
88.0467 -4.99588 0
77.4211 2.05863 0
77.0019 1.14522 0
77.8534 -0.024699 0
77.597 -0.0484832 0
80.0535 6.82084 0
78.0481 4.0441 0
79.7403 -4.28973 0
78.7156 -8.08525 0
77.2694 0.783647 0
77.7254 0.423951 0
89.8114 0.527276 0
90.1621 1.15064 0
89.8375 -1.0517 0
89.8012 -0.204032 0
87.4327 -0.122422 0
87.6739 -0.0827644 0
87.6424 0.0708243 0
87.5099 0.40692 0
92.2717 0.461543 0
91.1394 1.41018 0
91.1674 -0.575285 0
92.4116 -0.72515 0
77.3899 0.10849 0
76.6854 -1.74357 0