# vtk DataFile Version 3.0
Unstructured Grid for Triangles
ASCII
DATASET UNSTRUCTURED_GRID
POINTS 29612 DOUBLE
-2.72397e-05 1.23686e-06 0
-2.95789e-05 9.5838e-07 0
-2.77865e-05 -3.1235e-07 0
0.0002024 5e-05 0
0.000203975 4.9875e-05 0
0.000205 5e-05 0
0.000203975 -4.9875e-05 0
0.0002024 -5e-05 0
0.000205 -5e-05 0
0.00020295 4.975e-05 0
0.00020295 -4.975e-05 0
0.000201925 4.9625e-05 0
0.000201925 -4.9625e-05 0
-5.29747e-05 -4.79887e-05 0
-5.5e-05 -5e-05 0
-5.24e-05 -5e-05 0
-5.05983e-05 -4.84325e-05 0
-4.98e-05 -5e-05 0
-4.72e-05 -5e-05 0
-4.83864e-05 -4.87761e-05 0
-4.46e-05 -5e-05 0
-4.59e-05 -4.84239e-05 0
-4.29453e-05 -4.24878e-05 0
-4.47486e-05 -4.20717e-05 0
-4.41829e-05 -4.36609e-05 0
-5.12578e-05 -4.62101e-05 0
-4.93077e-05 -4.53594e-05 0
-5.0706e-05 -4.39006e-05 0
-4.19243e-05 -4.77545e-05 0
-4.40307e-05 -4.71837e-05 0
-4.3691e-05 -4.86724e-05 0
-5.16129e-05 -4.20948e-05 0
-4.95355e-05 -4.15432e-05 0
-5.11646e-05 -4.0128e-05 0
-3.94697e-05 -4.81197e-05 0
-4.06302e-05 -4.55143e-05 0
-5.37257e-05 -3.88197e-05 0
-5.31099e-05 -4.07297e-05 0
-5.23982e-05 -3.88328e-05 0
-3.70063e-05 -4.72956e-05 0
-3.68e-05 -5e-05 0
-3.5308e-05 -4.85302e-05 0
-5.072e-05 -3.7867e-05 0
-4.85506e-05 -3.83975e-05 0
-4.90949e-05 -3.59622e-05 0
-3.37127e-05 -4.84331e-05 0
-3.16e-05 -5e-05 0
-3.26495e-05 -4.7415e-05 0
-5.5e-05 -3.5e-05 0
-5.31201e-05 -3.70361e-05 0
-5.28367e-05 -3.46817e-05 0
-3.63898e-05 -4.48809e-05 0
-3.83315e-05 -4.60336e-05 0
-3.26269e-06 -4.15503e-05 0
-5.99662e-06 -4.09556e-05 0
-5.46944e-06 -4.29488e-05 0
-5.29747e-05 4.79887e-05 0
-5.5e-05 5e-05 0
-5.5e-05 4.75e-05 0
-5.5e-05 4.5e-05 0
-5.34834e-05 4.29171e-05 0
-5.26943e-05 4.42611e-05 0
-5.34026e-05 4.60176e-05 0
-5.31099e-05 4.07297e-05 0
-5.11672e-05 4.01178e-05 0
-5.16129e-05 4.20948e-05 0
-5.24e-05 5e-05 0
-5.05983e-05 4.84325e-05 0
-5.31201e-05 3.70361e-05 0
-5.072e-05 3.7867e-05 0
-5.23982e-05 3.88328e-05 0
-4.8341e-05 4.69132e-05 0
-4.83679e-05 4.87539e-05 0
-5.28367e-05 3.46817e-05 0
-5.5e-05 3.25e-05 0
-5.25657e-05 3.28474e-05 0
-4.98e-05 5e-05 0
-5.30382e-05 3.125e-05 0
-4.19243e-05 4.77545e-05 0
-4.40015e-05 4.7335e-05 0
-4.25917e-05 4.63678e-05 0
-4.35138e-05 2.62661e-05 0
-4.14982e-05 2.74462e-05 0
-4.35654e-05 2.85217e-05 0
-4.59e-05 4.84239e-05 0
-4.36852e-05 4.87027e-05 0
-4.46e-05 5e-05 0
-5.33308e-05 2.92503e-05 0
-5.5e-05 2.75e-05 0
-5.23377e-05 2.76953e-05 0
-4.25282e-05 4.46352e-05 0
-4.09368e-05 4.35728e-05 0
-4.06302e-05 4.55143e-05 0
0.0002009 4.95e-05 0
0.0001998 5e-05 0
0.000199875 4.9375e-05 0
0.00019885 4.925e-05 0
0.0001972 5e-05 0
0.000197825 4.9125e-05 0
0.0001968 4.9e-05 0
0.000195775 4.8875e-05 0
0.0001946 5e-05 0
0.00019475 4.875e-05 0
0.000193725 4.8625e-05 0
0.000192 5e-05 0
0.0001927 4.85e-05 0
0.000191675 4.8375e-05 0
0.00019065 4.825e-05 0
0.0001894 5e-05 0
0.000189625 4.8125e-05 0
0.0001886 4.8e-05 0
0.0001868 5e-05 0
0.000187575 4.7875e-05 0
0.00018655 4.775e-05 0
0.000185515 4.8575e-05 0
0.0001842 5e-05 0
0.0001845 4.75e-05 0
0.000185525 4.7625e-05 0
0.000182564 4.829e-05 0
0.0001816 5e-05 0
0.00018245 4.725e-05 0
0.000183475 4.7375e-05 0
0.000181425 4.7125e-05 0
0.000180295 4.82657e-05 0
0.000179 5e-05 0
0.000179375 4.6875e-05 0
0.0001804 4.7e-05 0
0.000178168 4.80619e-05 0
0.0001764 5e-05 0
0.000177325 4.6625e-05 0
0.00017835 4.675e-05 0
0.000176428 4.76631e-05 0
0.0001763 4.65e-05 0
0.0001738 5e-05 0
0.0001751 4.84164e-05 0
0.000175275 4.6375e-05 0
0.000174025 4.75632e-05 0
0.0001712 5e-05 0
0.000172615 4.78449e-05 0
0.0001722 4.6e-05 0
0.000173225 4.6125e-05 0
0.00017015 4.575e-05 0
0.000171243 4.7381e-05 0
0.000169554 4.79999e-05 0
0.0001686 5e-05 0
0.000167507 4.79751e-05 0
0.000168498 4.64861e-05 0
0.000166 5e-05 0
0.00016558 4.71459e-05 0
0.000167135 4.62887e-05 0
0.0001681 4.55e-05 0
0.00016605 4.525e-05 0
0.000167075 4.5375e-05 0
0.000164059 4.61599e-05 0
0.00016394 4.79552e-05 0
0.000162881 4.6615e-05 0
0.000162975 4.4875e-05 0
0.000165025 4.5125e-05 0
0.000164 4.5e-05 0
0.000161754 4.58641e-05 0
0.000161722 4.78101e-05 0
0.000159956 4.58294e-05 0
0.000160925 4.4625e-05 0
0.00016195 4.475e-05 0
0.000157667 4.60322e-05 0
0.000158875 4.4375e-05 0
0.000159194 4.80155e-05 0
0.0001599 4.45e-05 0
0.00015785 4.425e-05 0
0.000155808 4.56757e-05 0
0.000155647 4.76701e-05 0
0.000154059 4.66642e-05 0
0.000153756 4.50083e-05 0
0.000154839 4.50446e-05 0
0.000156825 4.4125e-05 0
0.000151954 4.80508e-05 0
0.000154052 4.8477e-05 0
0.000153 5e-05 0
0.000154775 4.3875e-05 0
0.000152142 4.56625e-05 0
0.000152821 4.45753e-05 0
0.00015375 4.375e-05 0
0.0001504 5e-05 0
0.000149644 4.85168e-05 0
0.000151787 4.43178e-05 0
0.000152725 4.3625e-05 0
0.000150675 4.3375e-05 0
0.0001517 4.35e-05 0
0.000148119 4.50887e-05 0
0.000148072 4.75757e-05 0
0.000146584 4.63516e-05 0
0.000150008 4.6396e-05 0
0.000149351 4.4543e-05 0
0.00015061 4.46252e-05 0
0.0001476 4.3e-05 0
0.000148625 4.3125e-05 0
0.000146492 4.82975e-05 0
0.000144888 4.73562e-05 0
0.000146676 4.44259e-05 0
0.000145255 4.53656e-05 0
0.000145652 4.38669e-05 0
0.000141401 4.79821e-05 0
0.0001426 5e-05 0
0.00014 5e-05 0
0.000144374 4.38862e-05 0
0.00014555 4.275e-05 0
0.0001435 4.25e-05 0
0.000144525 4.2625e-05 0
0.000142746 4.38121e-05 0
0.000141288 4.43191e-05 0
0.000141707 4.32778e-05 0
0.00013921 4.38992e-05 0
0.000140355 4.5932e-05 0
0.000138302 4.5922e-05 0
0.000142912 4.58869e-05 0
0.000140592 4.30037e-05 0
0.00014145 4.225e-05 0
0.000136458 4.5869e-05 0
0.000137106 4.4063e-05 0
0.0001394 4.2e-05 0
0.000138259 4.28915e-05 0
0.000137484 4.77094e-05 0
0.000139166 4.78902e-05 0
0.00013586 4.78984e-05 0
0.000133449 4.78649e-05 0
0.000134717 4.61848e-05 0
0.000137256 4.25134e-05 0
0.000135323 4.24541e-05 0
0.000136325 4.1625e-05 0
0.000136122 4.2876e-05 0
0.000131206 4.47284e-05 0
0.000133168 4.56738e-05 0
0.000131773 4.65243e-05 0
0.000134756 4.40343e-05 0
0.000132747 4.36463e-05 0
0.000133483 4.26786e-05 0
0.000131081 4.1867e-05 0
0.000132382 4.22815e-05 0
0.000131507 4.3122e-05 0
0.000131059 4.80123e-05 0
0.00013325 4.125e-05 0
0.00012915 4.075e-05 0
0.00012982 4.18199e-05 0
0.000128915 4.26216e-05 0
0.000126366 4.47574e-05 0
0.000127331 4.30908e-05 0
0.000128781 4.44872e-05 0
0.000125336 4.28376e-05 0
0.000130218 4.31077e-05 0
0.000127894 4.16344e-05 0
0.000124774 4.69608e-05 0
0.000127668 4.64148e-05 0
0.000126591 4.8331e-05 0
0.000126722 4.18415e-05 0
0.000125768 4.11931e-05 0
0.000124326 4.13546e-05 0
0.00012505 4.025e-05 0
0.000122408 4.50118e-05 0
0.000120276 4.47432e-05 0
0.00012139 4.32235e-05 0
0.000124336 4.44132e-05 0
0.000123056 4.27595e-05 0
0.000122977 4.09049e-05 0
0.00012185 4.69217e-05 0
0.000122676 4.85947e-05 0
0.000120525 4.86094e-05 0
0.000121479 4.13153e-05 0
0.000119547 4.24221e-05 0
0.000120249 4.07448e-05 0
0.000119925 3.9625e-05 0
0.000119346 4.06114e-05 0
0.000117479 4.47279e-05 0
0.000114726 4.45259e-05 0
0.00011571 4.27814e-05 0
0.000119443 4.66611e-05 0
0.000117447 4.21596e-05 0
0.000118421 4.0752e-05 0
0.000117409 4.04437e-05 0
0.000116775 4.70073e-05 0
0.0001179 4.855e-05 0
0.000115473 4.84802e-05 0
0.00011685 3.925e-05 0
0.000117875 3.9375e-05 0
0.000115454 4.00551e-05 0
0.0001148 3.9e-05 0
0.000115825 3.9125e-05 0
0.000111704 4.23398e-05 0
0.000113786 4.26731e-05 0
0.000112589 4.43871e-05 0
0.000113234 4.06671e-05 0
0.000114754 4.13371e-05 0
0.0001106 4.42326e-05 0
0.000109703 4.24261e-05 0
0.00011275 3.875e-05 0
0.000113775 3.8875e-05 0
0.000110211 4.80875e-05 0
0.000108244 4.71951e-05 0
0.000109312 4.58413e-05 0
0.000111755 3.99116e-05 0
0.00010944 3.92972e-05 0
0.000110415 4.05876e-05 0
0.000108839 4.07536e-05 0
0.000106472 4.76905e-05 0
0.000107274 4.57868e-05 0
0.000108011 3.92415e-05 0
0.000106885 4.04365e-05 0
0.000106625 3.88708e-05 0
0.000105286 4.19254e-05 0
0.000105055 3.95469e-05 0
0.000104215 4.39764e-05 0
0.000106346 4.40629e-05 0
0.000100945 4.51249e-05 0
0.000102825 4.5614e-05 0
0.000101189 4.68452e-05 0
0.000107625 3.8125e-05 0
0.000105575 3.7875e-05 0
0.0001066 3.8e-05 0
0.000103352 4.76905e-05 0
0.000101803 4.8465e-05 0
0.000103685 3.89398e-05 0
0.00010245 3.8825e-05 0
0.000103525 3.7625e-05 0
0.000101092 3.99779e-05 0
0.000101267 3.82619e-05 0
0.000101382 4.2025e-05 0
0.000103187 4.05286e-05 0
0.000103359 4.24605e-05 0
9.87383e-05 4.5447e-05 0
9.99411e-05 4.35161e-05 0
9.744e-05 4.33145e-05 0
0.00010045 3.725e-05 0
0.000101475 3.7375e-05 0
9.70845e-05 4.65215e-05 0
9.52614e-05 4.67664e-05 0
9.61768e-05 4.49944e-05 0
9.9729e-05 3.87704e-05 0
9.78901e-05 3.9598e-05 0
9.85823e-05 3.81492e-05 0
9.62289e-05 3.93709e-05 0
9.74259e-05 3.81279e-05 0
9.7375e-05 3.6875e-05 0
9.63045e-05 3.76631e-05 0
9.58e-05 5e-05 0
9.32e-05 5e-05 0
9.47542e-05 4.8457e-05 0
9.49675e-05 3.85246e-05 0
9.36214e-05 3.89472e-05 0
9.40006e-05 3.74906e-05 0
9.66411e-05 4.12573e-05 0
9.44241e-05 4.07079e-05 0
9.03569e-05 4.24993e-05 0
9.21701e-05 4.02409e-05 0
9.27439e-05 4.27744e-05 0
8.89795e-05 4.09067e-05 0
9.03071e-05 4.0248e-05 0
9.25447e-05 3.77721e-05 0
9.3275e-05 3.6375e-05 0
9.07708e-05 3.87127e-05 0
9.11303e-05 3.70839e-05 0
9.11933e-05 4.55145e-05 0
9.30678e-05 4.73279e-05 0
9.11886e-05 4.82603e-05 0
8.87724e-05 3.88076e-05 0
8.99595e-05 3.75116e-05 0
9.02e-05 3.6e-05 0
8.89241e-05 3.6954e-05 0
8.36977e-05 4.59472e-05 0
8.36223e-05 4.83578e-05 0
8.20467e-05 4.74142e-05 0
8.71227e-05 4.03557e-05 0
8.61e-05 3.55e-05 0
8.68368e-05 3.65714e-05 0
8.5484e-05 3.6588e-05 0
8.47735e-05 4.02845e-05 0
8.23121e-05 4.21599e-05 0
8.26582e-05 3.98147e-05 0
8.46943e-05 4.2454e-05 0
8.38832e-05 3.78613e-05 0
8.35569e-05 3.63808e-05 0
8.44098e-05 3.6291e-05 0
8.5075e-05 3.5375e-05 0
8.51465e-05 4.77163e-05 0
8.3025e-05 3.5125e-05 0
8.22824e-05 3.68659e-05 0
8.1446e-05 3.57362e-05 0
8.05884e-05 3.71794e-05 0
7.53471e-05 4.77524e-05 0
7.38313e-05 4.73927e-05 0
7.39102e-05 4.61526e-05 0
7.9826e-05 3.58588e-05 0
7.88607e-05 3.76287e-05 0
7.81733e-05 3.57987e-05 0
8.16783e-05 3.84471e-05 0
8.07975e-05 4.04095e-05 0
7.52138e-05 4.04775e-05 0
7.67682e-05 4.17043e-05 0
7.49617e-05 4.21803e-05 0
7.52903e-05 3.84008e-05 0
7.38293e-05 3.93136e-05 0
[...]
CELL_DATA 58684
VECTORS velocity DOUBLE
73.955 0.337299 0
85.3731 -0.000145651 0
85.3476 0.000224214 0
85.3756 0.000368677 0
85.3486 -0.000794143 0
85.3817 -0.00210355 0
85.3548 0.0023323 0
77.8559 -0.00322371 0
77.8595 -0.0232075 0
77.9262 -0.00443111 0
78.0123 -0.00748675 0
78.0571 -0.406992 0
77.875 -0.109813 0
78.1277 -0.134143 0
77.8599 -0.18587 0
78.2967 -0.172369 0
77.8558 -0.111378 0
78.6117 -0.156738 0
77.8902 -0.317364 0
79.0778 -0.114409 0
77.8707 -0.11319 0
78.5874 -0.367035 0
84.8136 -2.16517 0
77.8531 0.0114672 0
77.8472 0.051185 0
77.8531 0.0249902 0
77.8643 0.140363 0
77.8591 0.0222628 0
77.8651 0.188763 0
77.9258 0.0494329 0
77.8664 0.14463 0
77.893 0.0318538 0
77.8271 0.145238 0
78.1878 0.16371 0
77.9094 1.12912 0
78.0669 0.0674458 0
77.8795 0.17575 0
78.2523 0.354441 0
85.3839 -0.00228318 0
85.3868 -0.000378767 0
85.3952 -0.00313907 0
85.3975 -0.00452707 0
85.4003 -0.000612262 0
85.4074 -0.00338576 0
85.41 -0.00606834 0
85.4116 -0.0046177 0
85.4148 -0.00061814 0
85.4215 -0.0061254 0
85.4227 -0.00618586 0
85.4246 -0.000670957 0
85.4328 -0.00660403 0
85.4339 -0.00831592 0
85.4352 -0.00607655 0
85.438 -0.0008755 0
85.4439 -0.0080045 0
85.4447 -0.00722494 0
85.4465 -0.000931441 0
85.4554 -0.00997549 0
85.4561 -0.0107387 0
85.4573 -0.00674479 0
85.4616 -0.000560073 0
85.466 -0.0131751 0
85.4696 -0.00917163 0
85.4775 -0.000924526 0
85.4804 -0.015052 0
85.4813 -0.01457 0
85.4852 -0.0103309 0
85.4899 -0.000779545 0
85.493 -0.0164325 0
85.4971 -0.0109034 0
85.5018 -0.000752138 0
85.5062 -0.0185328 0
85.5102 -0.0138888 0
85.5173 -0.0213328 0
85.5193 -0.000631583 0
85.5245 -0.0161049 0
85.5284 -0.0101889 0
85.5358 -0.00127232 0
85.5405 -0.0229008 0
85.5566 -0.0174508 0
85.5431 -0.0186909 0
85.5568 -0.00139084 0
85.5643 -0.0124764 0
85.5596 -0.0233035 0
85.5843 -0.0154152 0
85.5786 -0.0201481 0
85.5783 -0.0268044 0
85.5886 -0.0335917 0
85.6066 -0.0212734 0
85.6203 -0.0294636 0
85.599 -0.0257663 0
85.6137 -0.0375219 0
85.6285 -0.0293942 0
85.6267 -0.0284482 0
85.6346 -0.039626 0
85.6628 -0.0354944 0
85.6457 -0.0321438 0
85.6552 -0.0425976 0
85.6733 -0.0484688 0
85.6768 -0.0360818 0
85.7025 -0.0454168 0
85.6805 -0.0390899 0
85.7047 -0.0148681 0
85.7073 -0.0491649 0
85.7265 -0.0459126 0
85.719 -0.0513608 0
85.7284 -0.013769 0
85.7333 -0.0544573 0
85.7493 -0.0613893 0
85.7677 -0.0346344 0
85.7636 -0.0369017 0
85.7488 -0.0506886 0
85.7831 -0.0661122 0
85.7823 -0.0276507 0
85.8141 -0.0597186 0
85.7998 -0.0387279 0
85.8365 -0.00183424 0
85.8228 -0.0671802 0
85.8385 -0.0792082 0
85.8724 -0.068707 0
85.8932 -0.0530104 0
85.8464 -0.0422128 0
85.8816 -0.0791521 0
85.9209 -0.0537042 0
85.9143 -0.0837217 0
85.8909 -0.0307043 0
85.9269 -0.0749856 0
85.9459 -0.0273599 0
85.9422 -0.0882032 0
85.9716 -0.10243 0
86.0106 -0.061589 0
86.0008 -0.0850454 0
85.9744 -0.0393219 0
86.0431 -0.111317 0
85.9875 -0.0309843 0
86.0198 -0.110297 0
86.0908 -0.12344 0
86.1081 -0.086683 0
86.1263 -0.109363 0
86.0805 -0.103875 0
86.1088 -0.112991 0
86.0771 -0.0509636 0
86.1562 -0.13106 0
86.1835 -0.143756 0
86.2242 -0.0956725 0
86.1392 -0.0708746 0
86.1788 -0.123581 0
86.2025 -0.147406 0
86.1673 -0.0289273 0
86.2787 -0.15671 0
86.2928 -0.175266 0
86.3433 -0.107668 0
86.2468 -0.0970939 0
86.3093 -0.147502 0
86.3328 -0.175604 0
86.2743 -0.0305938 0
86.3522 -0.203575 0
86.4076 -0.218861 0
86.4289 -0.155931 0
86.4208 -0.179023 0
86.4822 -0.164968 0
86.4539 -0.227069 0
86.4656 -0.0598187 0
86.4659 -0.213096 0
86.548 -0.217704 0
86.5276 -0.0705713 0
86.6226 -0.259843 0
86.6542 -0.240101 0
86.6361 -0.151027 0
86.7118 -0.117156 0
86.6265 -0.26508 0
86.6682 -0.293375 0
86.6802 -0.0601901 0
86.7504 -0.295564 0
86.8069 -0.305079 0
86.7204 -0.219025 0
86.7968 -0.135389 0
86.8392 -0.183708 0
86.8402 -0.349569 0
86.895 -0.118009 0
86.9147 -0.324444 0
86.9514 -0.31883 0
86.9785 -0.373559 0
86.9347 -0.00331976 0
87.0912 -0.372352 0
86.9647 -0.287135 0
87.1033 -0.258618 0
87.182 -0.302605 0
87.1442 -0.411262 0
87.2089 -0.416093 0
87.0656 -0.0931625 0
87.2513 -0.402134 0
87.2814 -0.465542 0
87.2965 -0.448293 0
87.4109 -0.102915 0
87.2817 -0.3556 0
87.4676 -0.513517 0
87.5268 -0.389198 0
87.4404 -0.327034 0
87.5344 -0.543034 0
87.5175 -0.536276 0
87.3966 -0.0918432 0
87.633 -0.595502 0
87.6738 -0.557511 0
87.8784 -0.105614 0
87.7835 -0.612454 0
87.6145 -0.427416 0
87.8946 -0.388531 0
87.9641 -0.501047 0
87.8439 -0.555237 0
87.872 -0.660955 0
87.9398 -0.237145 0
88.061 -0.632779 0
88.0125 -0.734225 0
88.2204 -0.740268 0
88.177 -0.00956639 0
88.1678 -0.611772 0
88.2353 -0.765724 0
88.0622 -0.189966 0
88.3049 -0.805879 0
88.4042 -0.460386 0
88.3541 -0.843155 0
88.5816 -0.255456 0
88.5385 -0.718469 0
88.5032 -0.849332 0
88.4362 -0.131856 0
88.6562 -0.874497 0
88.8519 -0.84778 0
88.683 -0.727197 0
88.7323 -0.43492 0
88.8889 -0.976021 0
88.8972 -0.379887 0
89.0706 -0.0650094 0
88.828 -0.764656 0
89.0154 -0.961151 0
89.1092 -1.035 0
89.1385 -0.319887 0
89.2628 -0.886326 0
89.4316 -0.967732 0
89.2229 -0.109541 0
89.5892 -0.936398 0
89.4992 -1.05137 0
89.3459 -0.779742 0
89.4135 -0.373383 0
89.5343 -0.434454 0
89.6649 -1.05098 0
89.6012 -0.00482692 0
89.7789 -1.12143 0
89.9232 -1.05741 0
89.8766 -1.1168 0
89.8581 -0.237763 0
89.99 -0.904874 0
90.257 -0.907959 0
89.8355 -0.00291151 0
90.3516 -1.08273 0
90.5397 -0.910862 0
90.167 -0.662783 0
89.9929 -0.270516 0
90.5349 -1.03241 0
90.1627 -0.333482 0
89.9928 -0.0132314 0
90.4644 -0.685295 0
90.8108 -0.926982 0
90.9839 -0.859299 0
90.1694 -0.060782 0
90.9375 -0.573453 0
91.0771 -0.760459 0
90.0475 0.0388504 0
91.2236 -0.743054 0
91.4182 -0.607908 0
91.036 -0.189513 0
89.8257 0.0118815 0
91.5831 -0.377296 0
90.7227 0.23233 0
90.9609 0.346229 0
91.4565 -0.229867 0
91.2351 0.0247334 0
91.9255 0.0174007 0
89.9581 0.389509 0
91.9084 -0.0850348 0
91.4668 0.476472 0
92.1217 0.56481 0
89.8698 0.114761 0
92.0861 1.26486 0
91.8621 1.49166 0
88.5528 0.200141 0
92.3091 0.962212 0
92.2154 1.43516 0
89.8912 1.50663 0
89.6323 0.721562 0
91.1534 1.16207 0
92.1199 1.96607 0
88.7993 0.334391 0
91.6399 2.85072 0
92.299 2.21345 0
92.3139 2.4395 0
88.0666 1.42528 0
90.6774 2.96741 0
91.6997 3.23803 0
88.0446 0.236171 0
91.5184 3.73715 0
91.1744 3.60701 0
90.2326 5.22155 0
85.8245 0.397238 0
91.35 4.93167 0
89.3817 3.55547 0
87.5391 1.57305 0
87.1719 2.99331 0
91.1226 5.43383 0
90.0087 5.87027 0
86.2561 0.610993 0
90.0775 6.69447 0
85.3569 0.0021976 0
85.3595 0.000375354 0
85.3668 0.002587 0
85.3687 0.00421593 0
85.371 0.000580296 0
85.3779 0.00321131 0
85.3801 0.00567881 0
85.3816 0.00455236 0
85.3847 0.000614065 0
85.3909 0.00556247 0
85.392 0.00544205 0
85.3935 0.000641029 0
85.4012 0.00627315 0
85.4022 0.00792902 0
85.4034 0.00579165 0
85.406 0.000856071 0
85.4119 0.00797645 0
85.4127 0.00728327 0
85.4145 0.000922344 0
85.4233 0.00973199 0
85.424 0.0105371 0
85.4328 0.0132392 0
85.4252 0.00659216 0
85.4373 0.00792531 0
85.4453 0.0129722 0
85.4374 0.0093198 0
85.4495 0.0145056 0
85.4534 0.010371 0
85.4604 0.01644 0
85.4512 0.00915273 0
85.4652 0.0111964 0
85.4737 0.0186704 0
85.4655 0.00931569 0
85.4861 0.0217596 0
85.4872 0.0211574 0
85.4917 0.0151465 0
85.4802 0.0110763 0
85.4933 0.016476 0
85.5063 0.0152961 0
85.4973 0.0104681 0
85.5195 0.0279378 0
85.5164 0.011671 0
85.5266 0.0177964 0
85.5149 0.0143905 0
85.5297 0.0237095 0
85.5491 0.0271864 0
85.5545 0.0157835 0
85.5452 0.0254473 0
85.5642 0.0288505 0
85.5664 0.03329 0
85.5844 0.0161161 0
85.5776 0.0215415 0
85.5913 0.0297976 0
85.6048 0.0423088 0
85.6087 0.0200619 0
85.6148 0.0321028 0
85.6249 0.0447101 0
85.6346 0.025819 0
85.6165 0.032289 0
85.6455 0.0492588 0
85.6467 0.0482016 0
85.6532 0.0303015 0
85.6643 0.0215862 0
85.6746 0.0453585 0
85.6206 0.013702 0
85.6915 0.051764 0
85.7224 0.0626752 0
85.7053 0.0529773 0
85.6899 0.030872 0
85.7339 0.0636518 0
85.7411 0.0552655 0
85.7576 0.0278726 0
85.7231 0.0517373 0
85.7635 0.0588271 0
85.7803 0.0677483 0
85.7298 0.0160252 0
85.7686 0.0489337 0
85.8146 0.0792492 0
85.7774 0.0398517 0
85.8255 0.0681798 0
85.8567 0.0835213 0
85.8307 0.0614757 0
85.8506 0.0248878 0
85.8664 0.0738694 0
85.8847 0.084622 0
85.866 0.0213394 0
85.9101 0.0939717 0
85.8741 0.0694224 0
85.9321 0.0768139 0
85.8917 0.0535552 0
85.9453 0.102637 0
86.0067 0.123731 0
85.9642 0.0308209 0
85.9627 0.0849079 0
86.0348 0.131198 0
86.0099 0.0944288 0
85.9517 0.0385439 0
86.0514 0.123176 0
86.0752 0.129381 0
86.0336 0.0320322 0
86.0795 0.0560697 0
86.1094 0.113197 0
86.1281 0.151336 0
86.0549 0.0803172 0
86.1605 0.144926 0
86.1841 0.157308 0
86.1892 0.0523374 0
86.1621 0.0951724 0
86.2359 0.176102 0
86.231 0.150023 0
86.1264 0.0493699 0
86.2571 0.168728 0
86.3095 0.180458 0
86.2858 0.0707121 0
86.2741 0.155211 0
86.3733 0.215467 0
86.3587 0.165901 0
86.2262 0.0534605 0
86.399 0.201079 0
86.4739 0.24603 0
86.3511 0.0700249 0
86.46 0.195639 0
86.4397 0.090507 0
86.5068 0.205633 0
86.4154 0.117132 0
86.5397 0.260316 0
86.6029 0.260132 0
86.5044 0.0711591 0
86.5921 0.255077 0
86.6777 0.294424 0
86.6362 0.074672 0
86.5599 0.215558 0
86.6687 0.251555 0
86.7314 0.297202 0
86.6074 0.0462633 0
86.7446 0.271069 0
86.8565 0.352864 0
86.8355 0.295526 0
86.7702 0.0889773 0
86.9174 0.309029 0
86.7159 0.114811 0
86.7476 0.261213 0
86.9054 0.342133 0
87.0257 0.386253 0
87.0376 0.396364 0
86.7373 0.00622828 0
87.1451 0.451486 0
87.159 0.438742 0
87.1887 0.387565 0
87.1201 0.189847 0
87.2368 0.203814 0
87.2041 0.433369 0
86.9545 0.117764 0
87.3382 0.486163 0
87.3287 0.479137 0
87.3385 0.430745 0
87.2238 0.124921 0
87.4272 0.476528 0
87.5645 0.595544 0
87.4122 0.223337 0
87.3517 0.236117 0
87.5219 0.48188 0
87.7014 0.615385 0
87.2623 0.146603 0
87.745 0.652185 0
87.789 0.632536 0
87.5901 0.123457 0
87.9437 0.723475 0
87.9811 0.692571 0
88.059 0.595551 0
87.82 0.261972 0
87.785 0.296496 0
87.9648 0.66891 0
87.6772 0.192766 0
88.1472 0.796925 0
88.2065 0.749171 0
88.2078 0.690328 0
87.9197 0.104567 0
88.3974 0.811355 0
88.4181 0.828461 0
88.2438 0.464314 0
88.5221 0.651235 0
88.2645 0.377388 0
88.4791 0.793468 0
88.1399 0.239254 0
88.6515 0.921176 0
88.6806 0.888409 0
88.1864 0.191997 0
88.7572 0.81785 0
88.958 0.938333 0
88.8615 0.919235 0
88.739 0.213763 0
89.1853 0.977716 0
89.2338 1.04529 0
88.6875 0.636141 0
89.1183 0.774115 0
88.7541 0.387038 0
89.4449 1.09617 0
88.9503 0.119368 0
89.5147 1.06192 0
89.51 1.00345 0
88.7527 0.0953626 0
89.4382 0.909231 0
89.8577 1.06776 0
89.957 1.0744 0
89.3867 0.270905 0
90.0375 1.04448 0
90.0897 1.11448 0
89.3581 0.68448 0
90.1027 0.727421 0
89.5612 0.260631 0
90.2676 1.10758 0
89.5933 0.0953153 0
90.4247 1.02748 0
90.5201 1.00867 0
89.405 0.0702387 0
90.335 0.833512 0
90.8288 0.928422 0
91.0004 0.861902 0
89.8809 0.163787 0
90.8301 0.806153 0
91.1488 0.806838 0
90.4342 0.705208 0
90.9396 0.384128 0
89.9797 0.0985261 0
90.9082 0.722463 0
90.0066 0.0344401 0
91.4072 0.694035 0
91.4996 0.545043 0
89.8883 0.037016 0
91.2036 0.242123 0
91.661 0.255938 0
91.8576 0.118291 0
90.0473 -0.105982 0
91.9541 -0.0892348 0
92.0033 -0.224634 0
90.2081 -0.290385 0
92.0208 -0.258024 0
91.2274 -0.687396 0
90.4593 -0.117958 0
90.2566 -0.0165666 0
92.1642 -0.552803 0
91.9297 -0.940994 0
92.3635 -1.12689 0
89.9388 -0.00847621 0
91.6524 -1.38508 0
92.3753 -1.8619 0
89.9152 -0.131529 0
91.4832 -1.3487 0
92.3585 -2.40031 0
90.9438 -1.80813 0
89.91 -0.676509 0
92.1726 -2.74547 0
92.038 -3.03604 0
90.8823 -1.15434 0
90.3734 -3.1806 0
88.3809 -2.60847 0
91.6848 -3.06514 0
88.7579 -0.413331 0
91.6786 -4.01638 0
89.1716 7.2855 0
89.8874 6.52066 0
84.6018 1.9249 0
89.0722 7.24004 0
86.8744 6.61898 0
88.4214 7.86658 0
85.1737 0.758276 0
87.4604 8.06422 0
86.3114 7.93213 0
83.9645 0.961003 0
86.38 8.45766 0
91.5946 -4.4313 0
88.9911 -0.256048 0
91.3356 -4.77246 0
90.1188 -5.159 0
89.5668 -4.44343 0
88.1363 -0.27165 0
90.3587 -5.74921 0
85.1108 7.72137 0
89.7216 -7.01564 0
87.9027 -1.40753 0
89.4053 -6.78004 0
88.5564 -7.73685 0
82.8426 2.3578 0
88.1283 -7.5903 0
89.3081 -4.25338 0
88.6135 -6.88206 0
86.7851 -5.09109 0
85.8528 -0.838826 0
87.6922 -6.98353 0
86.917 -7.38733 0
84.4945 8.14714 0
86.9843 -7.40055 0
86.6648 -0.456454 0
85.9762 -7.74589 0
85.4685 -8.44777 0
85.1936 -0.564464 0
84.3998 -8.58683 0
84.9049 -6.30684 0
83.0931 -0.654134 0
83.4037 -8.73663 0
83.4976 -4.84511 0
85.1629 -3.82285 0
83.9481 -7.48191 0
82.8604 -7.82756 0
85.4724 4.38619 0
81.9706 0.529536 0
84.8929 2.93262 0
83.5874 -0.0762059 0
82.3162 -8.48937 0
84.1283 7.71651 0
81.7076 0.383324 0
83.5769 6.56248 0
81.4679 -8.35257 0
83.1707 -1.70951 0
80.7997 -6.09693 0
83.5517 8.79222 0
80.633 2.01609 0
83.4549 8.71727 0
81.3009 7.26499 0
80.9152 0.409985 0
81.9065 7.6421 0
81.3896 -6.34592 0
82.7011 -0.470579 0
80.63 -8.47962 0
80.6525 -8.24652 0
82.2693 8.20708 0
80.3904 7.82106 0
80.2548 0.0426282 0
81.425 8.07611 0
79.648 5.05694 0
80.2438 2.27669 0
79.7238 -8.42697 0
80.702 -1.09127 0
80.0541 -8.3017 0
79.2685 8.27015 0
79.1174 -7.69871 0
79.8694 -1.07321 0
79.4844 -3.38493 0
77.8784 -7.39349 0
80.8966 -4.09085 0
77.7431 -7.15163 0
79.3976 -0.29063 0
76.8402 -6.83148 0
79.0513 2.85378 0
79.6535 0.459995 0
78.8635 6.94517 0
79.0842 0.118257 0
78.645 8.14769 0
78.3738 7.64487 0
78.7864 0.186193 0
77.6382 6.69106 0
78.5866 0.133761 0
78.2252 -6.39207 0
79.3944 -0.574352 0
79.439 6.0193 0
77.8371 0.732232 0
77.1996 6.28233 0
76.7308 -6.79156 0
79.5057 -0.228112 0
75.123 -5.8087 0
77.8433 -0.440512 0
75.9466 -5.71646 0
78.3574 2.54037 0
77.8503 0.12114 0
78.9545 -5.2014 0
77.8511 -0.11281 0
75.2567 -5.38142 0
76.6236 5.66824 0
76.6793 -4.24638 0
77.8544 -0.239856 0
75.5758 -4.61032 0
77.7076 3.13074 0
75.5778 1.98545 0
76.142 4.90195 0
77.5463 -0.981451 0
75.4097 -5.1078 0
77.7839 0.402366 0
76.0329 6.6143 0
77.5139 -2.36903 0
77.853 -0.0838052 0
75.089 -4.60875 0
75.774 5.90846 0
77.7769 0.715686 0
75.7576 4.61855 0
75.4735 4.55738 0
77.7758 0.382083 0
74.6871 4.0602 0
74.2323 -4.13741 0
77.8161 -0.293594 0
73.9327 -4.13081 0
76.3707 -1.96658 0
77.838 -0.199087 0
73.3175 -2.81586 0
74.7343 5.05039 0
77.6939 0.617674 0
76.0197 3.23631 0
73.9361 -2.55689 0
77.7091 -0.312546 0
73.2826 -2.3292 0
73.6309 3.71621 0
77.7169 0.263158 0
74.0376 3.50033 0
74.3451 2.85529 0
77.8495 0.0337414 0
73.5035 3.04163 0
74.6519 -1.50598 0
77.633 -0.5377 0
73.9319 -1.32778 0
72.7429 -0.844406 0
76.9082 -0.919676 0
72.7937 -0.715214 0
76.5984 0.956601 0
77.7637 0.0802349 0
75.6382 2.42099 0
73.2861 2.45002 0
77.6036 0.0588184 0
72.8644 1.54756 0
77.2889 -0.234087 0
77.8295 -0.112957 0
72.7928 -0.235052 0
73.3239 -0.0922421 0
77.7865 -0.0657676 0
75.581 0.305953 0
73.492 0.524026 0
77.8069 -0.061628 0
76.8502 -5.63091 0
77.8692 -0.431273 0
77.8325 0.134123 0
77.6448 6.85107 0
78.5643 -7.70385 0
81.6176 -0.940414 0
80.09 0.993044 0
81.1866 8.57939 0
77.7665 0.279969 0
74.1836 4.83236 0
73.6836 -2.82391 0
77.7912 -0.203445 0
77.8126 -0.573424 0
77.2724 -3.65213 0
77.8548 0.80014 0
77.8892 0.197003 0
77.7738 -5.29088e-05 0
73.3615 2.04519 0
79.0412 0.464457 0
78.1889 1.5698 0
78.4965 -1.3703 0
79.9141 -0.687714 0
85.2806 -1.27005 0
84.8689 -8.43385 0
86.728 8.05701 0
84.8292 0.468632 0
77.5686 1.65807 0
79.189 7.9648 0
78.1519 -7.0481 0
78.9649 -2.30669 0
76.7043 -1.45583 0
74.3375 -0.217885 0
75.8147 5.80301 0
77.8767 1.88257 0
77.7223 -1.78489 0
74.4577 -4.61376 0
91.0919 -5.40635 0
87.8318 -0.663813 0
87.4222 0.794594 0
91.5204 4.51647 0
77.8493 -0.813614 0
77.8613 -0.042978 0
77.843 0.148767 0
78.7194 0.753209 0
82.6435 0.736171 0
82.276 4.09274 0
80.8083 -1.98302 0
83.7964 -1.74081 0
81.2183 4.87899 0
84.0603 8.27807 0
82.9087 -8.65206 0
82.0994 -1.91449 0
86.0275 1.60959 0
87.1007 5.02369 0
85.6878 -2.78778 0
86.798 -0.044205 0
89.8687 -0.260695 0
92.3301 -1.3732 0
92.1563 0.577435 0
89.0949 0.0307505 0
89.9782 0.000799684 0
91.5441 0.524497 0
91.319 -0.513925 0
90.1477 0.0482752 0
78.7679 -1.44198 0
78.2797 -0.572129 0
78.181 1.23353 0
78.9318 0.944668 0
78.0408 1.22096 0
77.8537 0.23764 0
77.8484 -0.10802 0
77.9824 -1.12179 0
88.8084 0.962561 0
90.0283 1.90625 0
89.1224 -1.15839 0
89.3068 -0.173866 0
75.7184 -0.957218 0
77.8036 -0.154925 0
77.3378 -0.439468 0
77.811 -0.37133 0
77.8251 0.206758 0
77.7479 0.966367 0
90.5997 0.951514 0
89.7391 0.148956 0
89.9186 -0.00197636 0
90.312 -1.03822 0
81.2603 -0.0413467 0
80.5204 -2.81462 0
81.5433 1.7987 0
80.307 0.447359 0
77.5143 4.02602 0
76.9312 7.28633 0
76.7067 -6.23279 0
78.0075 -3.21187 0
78.5286 -2.10216 0
77.2983 -2.22384 0
77.5847 4.6202 0
77.9767 2.21853 0
90.1594 0.0608712 0
89.9131 0.148409 0
90.0757 -0.0557098 0
91.0455 0.057865 0
79.3547 -5.40246 0
80.4164 -5.2417 0
80.0294 4.62392 0
80.4953 8.49858 0
78.7454 -3.9647 0
79.9055 -2.30729 0
79.7343 3.10779 0
78.9792 1.53004 0
89.7849 1.13853 0
89.2003 0.138484 0
89.4619 -0.00885603 0
89.3366 -1.02728 0
77.1294 1.00902 0
77.8221 0.0312887 0
89.9885 -0.0505953 0
90.6485 -0.323947 0
90.3519 0.228093 0
89.8015 0.0357468 0
78.5976 -0.952389 0
78.1568 -1.32666 0
78.8652 1.73467 0
78.0765 0.735419 0
77.8672 -0.146192 0
78.0197 -0.694977 0
77.8904 0.315002 0
77.8442 0.136396 0
73.8054 1.70702 0
76.7326 1.51937 0
86.4318 -3.1513 0
89.714 -6.36298 0
90.6568 5.82588 0
86.1458 2.27661 0
76.543 -2.30035 0
74.4342 -2.88715 0
88.4597 0.156085 0
88.7504 0.885108 0
87.6847 0.0767222 0
88.3607 0.850919 0
88.7651 -0.864672 0
88.6026 -0.139669 0
88.0944 -0.712882 0
88.0186 -0.0120788 0
89.6382 -0.209434 0
89.7472 -0.607586 0
89.5914 0.382647 0
89.3364 0.00582537 0
77.8238 0.180364 0
77.5716 0.53579 0
76.2315 0.452489 0
73.9046 0.84268 0
77.7206 -0.246592 0
77.8126 -0.170749 0
77.2305 0.275739 0
77.1368 -0.744549 0
92.1723 -2.80049 0
89.0584 -1.76563 0
90.0302 2.24743 0
92.3202 1.67262 0
77.9355 -0.0646695 0
78.0071 -0.366754 0
77.8609 0.0500565 0
78.1563 0.259911 0
88.987 -0.203282 0
89.0015 -0.530911 0
89.0353 0.353679 0
88.6104 0.114395 0
87.4737 0.170275 0
87.6719 0.539802 0
87.6884 -0.632119 0
87.5775 -0.153827 0
78.2822 -0.896458 0
79.0929 -2.12316 0
78.5775 1.60657 0
78.2498 1.26933 0
78.8457 2.86924 0
77.3646 1.84379 0
77.9077 -1.91617 0
78.4944 -2.78007 0
90.5369 -0.561565 0
91.4729 0.247329 0
91.6463 -0.236592 0
90.9597 0.609055 0
77.5324 -1.14205 0
77.6353 -1.35898 0
77.686 1.07734 0
77.144 1.29911 0
87.4743 0.562358 0
87.1541 0.169054 0
87.2242 -0.104013 0
87.404 -0.47879 0
84.5954 4.25801 0
86.5494 7.11679 0
86.0444 -8.37619 0
85.6082 -3.34231 0
74.9059 -3.40766 0
77.2462 -3.49973 0
84.2283 -3.05454 0
84.847 -1.09492 0
83.2602 0.45147 0
86.4713 3.10918 0
74.4753 4.6036 0
76.4502 2.72092 0
88.287 -0.0512569 0
88.4671 -0.546719 0
88.3436 0.364123 0
88.2478 0.100239 0
88.25 -0.371312 0
88.0444 -1.52243 0
88.5894 2.10014 0
87.6259 0.273456 0
82.6531 1.39108 0
80.9846 0.348825 0
82.0592 -0.332805 0
82.6831 -3.10152 0
90.3069 0.300473 0
90.5877 0.820683 0
90.7517 -0.895137 0
90.6665 -0.0262215 0
81.7096 -3.81901 0
82.7738 -1.8328 0
82.0182 2.7009 0
84.4801 5.97096 0
87.0124 0.34293 0
86.8794 0.0650815 0
87.0827 -0.102736 0
86.9922 -0.357946 0
87.6982 -0.188909 0
87.8882 -0.00749123 0
87.857 0.102473 0
87.6581 0.443101 0
79.6091 0.493965 0
79.3786 1.29688 0
79.6193 -1.14402 0
80.4179 -0.314723 0
81.0395 2.81437 0
79.5156 1.94196 0
78.9054 -2.82371 0
78.1203 -2.8477 0
89.9092 -0.495925 0
89.6633 -0.285102 0
89.4937 0.383906 0
90.4086 0.650837 0
79.4661 3.8312 0
79.9781 2.55649 0
79.0263 -0.820898 0
78.8749 -0.290883 0
78.7329 0.264074 0
79.3818 0.886296 0
76.3498 -0.869744 0
77.3576 -1.34117 0
91.5544 -3.69201 0
89.1162 -2.08528 0
88.6038 3.76595 0
91.94 3.75992 0
77.7858 -0.864171 0
77.867 -0.140076 0
77.7989 0.200924 0
77.8596 0.840785 0
78.0984 0.0877604 0
78.1097 0.621944 0
78.2443 -0.344465 0
78.3728 -0.0207317 0
75.1685 -0.26619 0
72.8092 0.15078 0
84.5945 3.21431 0
88.5535 2.98693 0
87.2741 -2.51712 0
87.8732 -4.97671 0
77.3656 2.05671 0
76.9526 1.14365 0
77.8516 -0.0245528 0
77.5731 -0.0479215 0
79.947 6.80415 0
77.9693 4.03782 0
79.6461 -4.28143 0
78.6121 -8.06631 0
77.2311 0.784154 0
77.7078 0.424413 0
89.6267 0.50943 0
89.9883 1.11388 0
89.6645 -1.02304 0
89.6118 -0.196269 0
87.2432 -0.124885 0
87.4857 -0.0836709 0
87.4557 0.0716592 0
87.3239 0.415687 0
92.0538 0.490193 0
90.932 1.41723 0
90.9583 -0.591568 0
92.1902 -0.751196 0