# vtk DataFile Version 3.0
Unstructured Grid for Triangles
ASCII
DATASET UNSTRUCTURED_GRID
POINTS 29612 DOUBLE
-2.72397e-05 1.23686e-06 0
-2.95789e-05 9.5838e-07 0
-2.77865e-05 -3.1235e-07 0
0.0002024 5e-05 0
0.000203975 4.9875e-05 0
0.000205 5e-05 0
0.000203975 -4.9875e-05 0
0.0002024 -5e-05 0
0.000205 -5e-05 0
0.00020295 4.975e-05 0
0.00020295 -4.975e-05 0
0.000201925 4.9625e-05 0
0.000201925 -4.9625e-05 0
-5.29747e-05 -4.79887e-05 0
-5.5e-05 -5e-05 0
-5.24e-05 -5e-05 0
-5.05983e-05 -4.84325e-05 0
-4.98e-05 -5e-05 0
-4.72e-05 -5e-05 0
-4.83864e-05 -4.87761e-05 0
-4.46e-05 -5e-05 0
-4.59e-05 -4.84239e-05 0
-4.29453e-05 -4.24878e-05 0
-4.47486e-05 -4.20717e-05 0
-4.41829e-05 -4.36609e-05 0
-5.12578e-05 -4.62101e-05 0
-4.93077e-05 -4.53594e-05 0
-5.0706e-05 -4.39006e-05 0
-4.19243e-05 -4.77545e-05 0
-4.40307e-05 -4.71837e-05 0
-4.3691e-05 -4.86724e-05 0
-5.16129e-05 -4.20948e-05 0
-4.95355e-05 -4.15432e-05 0
-5.11646e-05 -4.0128e-05 0
-3.94697e-05 -4.81197e-05 0
-4.06302e-05 -4.55143e-05 0
-5.37257e-05 -3.88197e-05 0
-5.31099e-05 -4.07297e-05 0
-5.23982e-05 -3.88328e-05 0
-3.70063e-05 -4.72956e-05 0
-3.68e-05 -5e-05 0
-3.5308e-05 -4.85302e-05 0
-5.072e-05 -3.7867e-05 0
-4.85506e-05 -3.83975e-05 0
-4.90949e-05 -3.59622e-05 0
-3.37127e-05 -4.84331e-05 0
-3.16e-05 -5e-05 0
-3.26495e-05 -4.7415e-05 0
-5.5e-05 -3.5e-05 0
-5.31201e-05 -3.70361e-05 0
-5.28367e-05 -3.46817e-05 0
-3.63898e-05 -4.48809e-05 0
-3.83315e-05 -4.60336e-05 0
-3.26269e-06 -4.15503e-05 0
-5.99662e-06 -4.09556e-05 0
-5.46944e-06 -4.29488e-05 0
-5.29747e-05 4.79887e-05 0
-5.5e-05 5e-05 0
-5.5e-05 4.75e-05 0
-5.5e-05 4.5e-05 0
-5.34834e-05 4.29171e-05 0
-5.26943e-05 4.42611e-05 0
-5.34026e-05 4.60176e-05 0
-5.31099e-05 4.07297e-05 0
-5.11672e-05 4.01178e-05 0
-5.16129e-05 4.20948e-05 0
-5.24e-05 5e-05 0
-5.05983e-05 4.84325e-05 0
-5.31201e-05 3.70361e-05 0
-5.072e-05 3.7867e-05 0
-5.23982e-05 3.88328e-05 0
-4.8341e-05 4.69132e-05 0
-4.83679e-05 4.87539e-05 0
-5.28367e-05 3.46817e-05 0
-5.5e-05 3.25e-05 0
-5.25657e-05 3.28474e-05 0
-4.98e-05 5e-05 0
-5.30382e-05 3.125e-05 0
-4.19243e-05 4.77545e-05 0
-4.40015e-05 4.7335e-05 0
-4.25917e-05 4.63678e-05 0
-4.35138e-05 2.62661e-05 0
-4.14982e-05 2.74462e-05 0
-4.35654e-05 2.85217e-05 0
-4.59e-05 4.84239e-05 0
-4.36852e-05 4.87027e-05 0
-4.46e-05 5e-05 0
-5.33308e-05 2.92503e-05 0
-5.5e-05 2.75e-05 0
-5.23377e-05 2.76953e-05 0
-4.25282e-05 4.46352e-05 0
-4.09368e-05 4.35728e-05 0
-4.06302e-05 4.55143e-05 0
0.0002009 4.95e-05 0
0.0001998 5e-05 0
0.000199875 4.9375e-05 0
0.00019885 4.925e-05 0
0.0001972 5e-05 0
0.000197825 4.9125e-05 0
0.0001968 4.9e-05 0
0.000195775 4.8875e-05 0
0.0001946 5e-05 0
0.00019475 4.875e-05 0
0.000193725 4.8625e-05 0
0.000192 5e-05 0
0.0001927 4.85e-05 0
0.000191675 4.8375e-05 0
0.00019065 4.825e-05 0
0.0001894 5e-05 0
0.000189625 4.8125e-05 0
0.0001886 4.8e-05 0
0.0001868 5e-05 0
0.000187575 4.7875e-05 0
0.00018655 4.775e-05 0
0.000185515 4.8575e-05 0
0.0001842 5e-05 0
0.0001845 4.75e-05 0
0.000185525 4.7625e-05 0
0.000182564 4.829e-05 0
0.0001816 5e-05 0
0.00018245 4.725e-05 0
0.000183475 4.7375e-05 0
0.000181425 4.7125e-05 0
0.000180295 4.82657e-05 0
0.000179 5e-05 0
0.000179375 4.6875e-05 0
0.0001804 4.7e-05 0
0.000178168 4.80619e-05 0
0.0001764 5e-05 0
0.000177325 4.6625e-05 0
0.00017835 4.675e-05 0
0.000176428 4.76631e-05 0
0.0001763 4.65e-05 0
0.0001738 5e-05 0
0.0001751 4.84164e-05 0
0.000175275 4.6375e-05 0
0.000174025 4.75632e-05 0
0.0001712 5e-05 0
0.000172615 4.78449e-05 0
0.0001722 4.6e-05 0
0.000173225 4.6125e-05 0
0.00017015 4.575e-05 0
0.000171243 4.7381e-05 0
0.000169554 4.79999e-05 0
0.0001686 5e-05 0
0.000167507 4.79751e-05 0
0.000168498 4.64861e-05 0
0.000166 5e-05 0
0.00016558 4.71459e-05 0
0.000167135 4.62887e-05 0
0.0001681 4.55e-05 0
0.00016605 4.525e-05 0
0.000167075 4.5375e-05 0
0.000164059 4.61599e-05 0
0.00016394 4.79552e-05 0
0.000162881 4.6615e-05 0
0.000162975 4.4875e-05 0
0.000165025 4.5125e-05 0
0.000164 4.5e-05 0
0.000161754 4.58641e-05 0
0.000161722 4.78101e-05 0
0.000159956 4.58294e-05 0
0.000160925 4.4625e-05 0
0.00016195 4.475e-05 0
0.000157667 4.60322e-05 0
0.000158875 4.4375e-05 0
0.000159194 4.80155e-05 0
0.0001599 4.45e-05 0
0.00015785 4.425e-05 0
0.000155808 4.56757e-05 0
0.000155647 4.76701e-05 0
0.000154059 4.66642e-05 0
0.000153756 4.50083e-05 0
0.000154839 4.50446e-05 0
0.000156825 4.4125e-05 0
0.000151954 4.80508e-05 0
0.000154052 4.8477e-05 0
0.000153 5e-05 0
0.000154775 4.3875e-05 0
0.000152142 4.56625e-05 0
0.000152821 4.45753e-05 0
0.00015375 4.375e-05 0
0.0001504 5e-05 0
0.000149644 4.85168e-05 0
0.000151787 4.43178e-05 0
0.000152725 4.3625e-05 0
0.000150675 4.3375e-05 0
0.0001517 4.35e-05 0
0.000148119 4.50887e-05 0
0.000148072 4.75757e-05 0
0.000146584 4.63516e-05 0
0.000150008 4.6396e-05 0
0.000149351 4.4543e-05 0
0.00015061 4.46252e-05 0
0.0001476 4.3e-05 0
0.000148625 4.3125e-05 0
0.000146492 4.82975e-05 0
0.000144888 4.73562e-05 0
0.000146676 4.44259e-05 0
0.000145255 4.53656e-05 0
0.000145652 4.38669e-05 0
0.000141401 4.79821e-05 0
0.0001426 5e-05 0
0.00014 5e-05 0
0.000144374 4.38862e-05 0
0.00014555 4.275e-05 0
0.0001435 4.25e-05 0
0.000144525 4.2625e-05 0
0.000142746 4.38121e-05 0
0.000141288 4.43191e-05 0
0.000141707 4.32778e-05 0
0.00013921 4.38992e-05 0
0.000140355 4.5932e-05 0
0.000138302 4.5922e-05 0
0.000142912 4.58869e-05 0
0.000140592 4.30037e-05 0
0.00014145 4.225e-05 0
0.000136458 4.5869e-05 0
0.000137106 4.4063e-05 0
0.0001394 4.2e-05 0
0.000138259 4.28915e-05 0
0.000137484 4.77094e-05 0
0.000139166 4.78902e-05 0
0.00013586 4.78984e-05 0
0.000133449 4.78649e-05 0
0.000134717 4.61848e-05 0
0.000137256 4.25134e-05 0
0.000135323 4.24541e-05 0
0.000136325 4.1625e-05 0
0.000136122 4.2876e-05 0
0.000131206 4.47284e-05 0
0.000133168 4.56738e-05 0
0.000131773 4.65243e-05 0
0.000134756 4.40343e-05 0
0.000132747 4.36463e-05 0
0.000133483 4.26786e-05 0
0.000131081 4.1867e-05 0
0.000132382 4.22815e-05 0
0.000131507 4.3122e-05 0
0.000131059 4.80123e-05 0
0.00013325 4.125e-05 0
0.00012915 4.075e-05 0
0.00012982 4.18199e-05 0
0.000128915 4.26216e-05 0
0.000126366 4.47574e-05 0
0.000127331 4.30908e-05 0
0.000128781 4.44872e-05 0
0.000125336 4.28376e-05 0
0.000130218 4.31077e-05 0
0.000127894 4.16344e-05 0
0.000124774 4.69608e-05 0
0.000127668 4.64148e-05 0
0.000126591 4.8331e-05 0
0.000126722 4.18415e-05 0
0.000125768 4.11931e-05 0
0.000124326 4.13546e-05 0
0.00012505 4.025e-05 0
0.000122408 4.50118e-05 0
0.000120276 4.47432e-05 0
0.00012139 4.32235e-05 0
0.000124336 4.44132e-05 0
0.000123056 4.27595e-05 0
0.000122977 4.09049e-05 0
0.00012185 4.69217e-05 0
0.000122676 4.85947e-05 0
0.000120525 4.86094e-05 0
0.000121479 4.13153e-05 0
0.000119547 4.24221e-05 0
0.000120249 4.07448e-05 0
0.000119925 3.9625e-05 0
0.000119346 4.06114e-05 0
0.000117479 4.47279e-05 0
0.000114726 4.45259e-05 0
0.00011571 4.27814e-05 0
0.000119443 4.66611e-05 0
0.000117447 4.21596e-05 0
0.000118421 4.0752e-05 0
0.000117409 4.04437e-05 0
0.000116775 4.70073e-05 0
0.0001179 4.855e-05 0
0.000115473 4.84802e-05 0
0.00011685 3.925e-05 0
0.000117875 3.9375e-05 0
0.000115454 4.00551e-05 0
0.0001148 3.9e-05 0
0.000115825 3.9125e-05 0
0.000111704 4.23398e-05 0
0.000113786 4.26731e-05 0
0.000112589 4.43871e-05 0
0.000113234 4.06671e-05 0
0.000114754 4.13371e-05 0
0.0001106 4.42326e-05 0
0.000109703 4.24261e-05 0
0.00011275 3.875e-05 0
0.000113775 3.8875e-05 0
0.000110211 4.80875e-05 0
0.000108244 4.71951e-05 0
0.000109312 4.58413e-05 0
0.000111755 3.99116e-05 0
0.00010944 3.92972e-05 0
0.000110415 4.05876e-05 0
0.000108839 4.07536e-05 0
0.000106472 4.76905e-05 0
0.000107274 4.57868e-05 0
0.000108011 3.92415e-05 0
0.000106885 4.04365e-05 0
0.000106625 3.88708e-05 0
0.000105286 4.19254e-05 0
0.000105055 3.95469e-05 0
0.000104215 4.39764e-05 0
0.000106346 4.40629e-05 0
0.000100945 4.51249e-05 0
0.000102825 4.5614e-05 0
0.000101189 4.68452e-05 0
0.000107625 3.8125e-05 0
0.000105575 3.7875e-05 0
0.0001066 3.8e-05 0
0.000103352 4.76905e-05 0
0.000101803 4.8465e-05 0
0.000103685 3.89398e-05 0
0.00010245 3.8825e-05 0
0.000103525 3.7625e-05 0
0.000101092 3.99779e-05 0
0.000101267 3.82619e-05 0
0.000101382 4.2025e-05 0
0.000103187 4.05286e-05 0
0.000103359 4.24605e-05 0
9.87383e-05 4.5447e-05 0
9.99411e-05 4.35161e-05 0
9.744e-05 4.33145e-05 0
0.00010045 3.725e-05 0
0.000101475 3.7375e-05 0
9.70845e-05 4.65215e-05 0
9.52614e-05 4.67664e-05 0
9.61768e-05 4.49944e-05 0
9.9729e-05 3.87704e-05 0
9.78901e-05 3.9598e-05 0
9.85823e-05 3.81492e-05 0
9.62289e-05 3.93709e-05 0
9.74259e-05 3.81279e-05 0
9.7375e-05 3.6875e-05 0
9.63045e-05 3.76631e-05 0
9.58e-05 5e-05 0
9.32e-05 5e-05 0
9.47542e-05 4.8457e-05 0
9.49675e-05 3.85246e-05 0
9.36214e-05 3.89472e-05 0
9.40006e-05 3.74906e-05 0
9.66411e-05 4.12573e-05 0
9.44241e-05 4.07079e-05 0
9.03569e-05 4.24993e-05 0
9.21701e-05 4.02409e-05 0
9.27439e-05 4.27744e-05 0
8.89795e-05 4.09067e-05 0
9.03071e-05 4.0248e-05 0
9.25447e-05 3.77721e-05 0
9.3275e-05 3.6375e-05 0
9.07708e-05 3.87127e-05 0
9.11303e-05 3.70839e-05 0
9.11933e-05 4.55145e-05 0
9.30678e-05 4.73279e-05 0
9.11886e-05 4.82603e-05 0
8.87724e-05 3.88076e-05 0
8.99595e-05 3.75116e-05 0
9.02e-05 3.6e-05 0
8.89241e-05 3.6954e-05 0
8.36977e-05 4.59472e-05 0
8.36223e-05 4.83578e-05 0
8.20467e-05 4.74142e-05 0
8.71227e-05 4.03557e-05 0
8.61e-05 3.55e-05 0
8.68368e-05 3.65714e-05 0
8.5484e-05 3.6588e-05 0
8.47735e-05 4.02845e-05 0
8.23121e-05 4.21599e-05 0
8.26582e-05 3.98147e-05 0
8.46943e-05 4.2454e-05 0
8.38832e-05 3.78613e-05 0
8.35569e-05 3.63808e-05 0
8.44098e-05 3.6291e-05 0
8.5075e-05 3.5375e-05 0
8.51465e-05 4.77163e-05 0
8.3025e-05 3.5125e-05 0
8.22824e-05 3.68659e-05 0
8.1446e-05 3.57362e-05 0
8.05884e-05 3.71794e-05 0
7.53471e-05 4.77524e-05 0
7.38313e-05 4.73927e-05 0
7.39102e-05 4.61526e-05 0
7.9826e-05 3.58588e-05 0
7.88607e-05 3.76287e-05 0
7.81733e-05 3.57987e-05 0
8.16783e-05 3.84471e-05 0
8.07975e-05 4.04095e-05 0
7.52138e-05 4.04775e-05 0
7.67682e-05 4.17043e-05 0
7.49617e-05 4.21803e-05 0
7.52903e-05 3.84008e-05 0
7.38293e-05 3.93136e-05 0
[...]
CELL_DATA 58684
VECTORS velocity DOUBLE
74.287 0.337253 0
87.4891 0.00016686 0
87.4639 -6.16466e-06 0
87.4931 0.000258804 0
87.4666 -0.000787309 0
87.4982 -0.0028234 0
87.4725 0.00339906 0
77.8833 -0.00129861 0
77.8999 -0.0246404 0
78.0157 -0.00242659 0
78.135 -0.00479579 0
78.2015 -0.40998 0
77.9379 -0.109725 0
78.2841 -0.135228 0
77.9156 -0.185021 0
78.489 -0.17013 0
77.8841 -0.112888 0
78.8595 -0.15771 0
77.9701 -0.318092 0
79.3787 -0.111181 0
77.8963 -0.116072 0
78.8272 -0.370119 0
85.4903 -2.16599 0
77.8634 0.0124291 0
77.8685 0.0514163 0
77.8627 0.0249923 0
77.9104 0.142511 0
77.8996 0.0235174 0
77.9039 0.188853 0
78.0124 0.0491421 0
77.8936 0.145592 0
77.9651 0.0334337 0
77.8569 0.144067 0
78.3575 0.162716 0
78.0658 1.13464 0
78.2061 0.0689276 0
77.9051 0.1797 0
78.4385 0.354683 0
87.5006 -0.00184498 0
87.5047 0.000105919 0
87.5124 -0.00410895 0
87.5123 -0.00414435 0
87.5178 0.000497041 0
87.5255 -0.00338368 0
87.5267 -0.0069977 0
87.5274 -0.00483978 0
87.5323 -6.4012e-05 0
87.5383 -0.00649007 0
87.5376 -0.00624679 0
87.5416 0.000137365 0
87.5498 -0.0068526 0
87.5497 -0.00908423 0
87.5502 -0.00616094 0
87.554 -0.000544086 0
87.5592 -0.00851617 0
87.5585 -0.00759019 0
87.5617 -0.000536736 0
87.57 -0.0107454 0
87.5694 -0.0116095 0
87.5704 -0.0067433 0
87.5756 -0.000335402 0
87.5791 -0.0151754 0
87.5816 -0.00987242 0
87.5892 -0.00144811 0
87.5916 -0.0169474 0
87.5912 -0.0159664 0
87.5958 -0.0115428 0
87.5996 -0.0011121 0
87.6009 -0.0182087 0
87.6057 -0.0124028 0
87.6091 -0.000975869 0
87.6123 -0.0204507 0
87.6165 -0.0156487 0
87.6225 -0.0237387 0
87.6233 -0.000881644 0
87.6278 -0.0178715 0
87.6305 -0.0111478 0
87.6361 -0.00183753 0
87.6402 -0.0257222 0
87.6529 -0.019941 0
87.6425 -0.0211048 0
87.6523 -0.00222395 0
87.6576 -0.0134638 0
87.6546 -0.0257462 0
87.6736 -0.0170432 0
87.6699 -0.0226908 0
87.6717 -0.0301264 0
87.6798 -0.0374522 0
87.6909 -0.0237573 0
87.7038 -0.0333491 0
87.6863 -0.0291999 0
87.6988 -0.0419266 0
87.7077 -0.0324695 0
87.7074 -0.0313931 0
87.7149 -0.0439998 0
87.7367 -0.0396949 0
87.7198 -0.0346567 0
87.7308 -0.0470099 0
87.745 -0.0529532 0
87.7436 -0.0388135 0
87.7634 -0.0489097 0
87.749 -0.0435693 0
87.7624 -0.0156361 0
87.7701 -0.05379 0
87.784 -0.0502119 0
87.7788 -0.0560323 0
87.7788 -0.0139252 0
87.7905 -0.0593582 0
87.8037 -0.066708 0
87.8088 -0.0375781 0
87.8076 -0.0398762 0
87.7974 -0.0542915 0
87.8261 -0.0710593 0
87.8181 -0.029424 0
87.8485 -0.0641481 0
87.8334 -0.0415269 0
87.8541 -0.00325919 0
87.8569 -0.0726493 0
87.8688 -0.0846553 0
87.893 -0.0737955 0
87.9029 -0.0567921 0
87.8645 -0.0440524 0
87.9008 -0.0845288 0
87.9221 -0.0573899 0
87.924 -0.0888368 0
87.896 -0.0331586 0
87.9331 -0.0801429 0
87.9344 -0.0305799 0
87.945 -0.09258 0
87.9678 -0.106385 0
87.9854 -0.0635505 0
87.9854 -0.0894157 0
87.9546 -0.0418982 0
88.0187 -0.114373 0
87.9632 -0.033351 0
88.0029 -0.114068 0
88.0553 -0.127013 0
88.0601 -0.0896387 0
88.0728 -0.109826 0
88.0426 -0.106118 0
88.0659 -0.116395 0
88.0245 -0.0499903 0
88.1018 -0.133307 0
88.1245 -0.146688 0
88.1407 -0.0962306 0
88.073 -0.0724525 0
88.1155 -0.125827 0
88.134 -0.147808 0
88.0879 -0.0299406 0
88.1906 -0.157695 0
88.2034 -0.17519 0
88.2252 -0.107997 0
88.1504 -0.0943214 0
88.2101 -0.148103 0
88.2292 -0.174168 0
88.1631 -0.0318053 0
88.2468 -0.20124 0
88.2881 -0.215187 0
88.2886 -0.151447 0
88.2912 -0.175544 0
88.3273 -0.159671 0
88.3205 -0.222564 0
88.3006 -0.0591591 0
88.3276 -0.20971 0
88.3873 -0.213412 0
88.3478 -0.0689407 0
88.4432 -0.251788 0
88.4625 -0.232474 0
88.4395 -0.148311 0
88.4846 -0.113275 0
88.4489 -0.258255 0
88.482 -0.284065 0
88.4577 -0.0581275 0
88.5393 -0.286871 0
88.58 -0.293954 0
88.5054 -0.211198 0
88.5529 -0.133126 0
88.5845 -0.174753 0
88.6104 -0.335954 0
88.6201 -0.113998 0
88.6615 -0.313282 0
88.6866 -0.307294 0
88.7111 -0.358654 0
88.644 -0.00551269 0
88.7957 -0.357019 0
88.6895 -0.276448 0
88.7887 -0.249674 0
88.8496 -0.291255 0
88.8406 -0.395543 0
88.8864 -0.39915 0
88.7475 -0.0901842 0
88.9161 -0.387195 0
88.9437 -0.445928 0
88.9536 -0.429115 0
89.008 -0.0989621 0
88.9319 -0.340394 0
89.0912 -0.49311 0
89.1201 -0.372749 0
89.0475 -0.314104 0
89.1394 -0.519757 0
89.1293 -0.514479 0
89.001 -0.0891876 0
89.2169 -0.569898 0
89.2487 -0.535726 0
89.3793 -0.105153 0
89.3337 -0.586729 0
89.1933 -0.412114 0
89.4086 -0.374953 0
89.4687 -0.482486 0
89.378 -0.532092 0
89.4062 -0.636156 0
89.4296 -0.228683 0
89.5553 -0.613625 0
89.5209 -0.706071 0
89.6877 -0.716753 0
89.6155 -0.0120681 0
89.6361 -0.589611 0
89.698 -0.740843 0
89.5264 -0.182709 0
89.7553 -0.778916 0
89.8232 -0.449772 0
89.7986 -0.814328 0
89.957 -0.251986 0
89.9426 -0.702529 0
89.9168 -0.826127 0
89.8297 -0.12698 0
90.047 -0.852889 0
90.2056 -0.831016 0
90.0574 -0.707052 0
90.0897 -0.427359 0
90.2401 -0.953864 0
90.2199 -0.374654 0
90.3528 -0.0641349 0
90.1791 -0.751608 0
90.3438 -0.944522 0
90.4275 -1.01408 0
90.4195 -0.318301 0
90.5511 -0.875885 0
90.6976 -0.959873 0
90.4775 -0.106828 0
90.831 -0.93391 0
90.7577 -1.04225 0
90.6145 -0.771113 0
90.6507 -0.371738 0
90.7593 -0.434897 0
90.8977 -1.04785 0
90.7838 -0.00726524 0
90.9986 -1.11757 0
91.1234 -1.06125 0
91.0832 -1.1168 0
91.0121 -0.24226 0
91.1737 -0.909975 0
91.41 -0.924224 0
90.9636 -0.00538781 0
91.5008 -1.09684 0
91.6614 -0.932198 0
91.3213 -0.674743 0
91.133 -0.27763 0
91.6622 -1.05373 0
91.2925 -0.345267 0
91.0662 -0.0157905 0
91.581 -0.707992 0
91.9088 -0.958842 0
92.066 -0.895533 0
91.241 -0.072629 0
92.0041 -0.608869 0
92.1476 -0.801326 0
91.0836 0.0321708 0
92.2803 -0.789855 0
92.4585 -0.661161 0
92.0773 -0.229273 0
90.813 0.00913229 0
92.6057 -0.439134 0
91.7322 0.199054 0
91.9584 0.30491 0
92.476 -0.287498 0
92.2523 -0.0267181 0
92.9192 -0.0533479 0
90.9256 0.371811 0
92.9062 -0.155851 0
92.4482 0.415714 0
93.0916 0.483467 0
90.848 0.107681 0
93.0358 1.18509 0
92.8034 1.41617 0
89.4274 0.198095 0
93.263 0.875058 0
93.1545 1.35477 0
90.796 1.47327 0
90.5611 0.702822 0
92.0995 1.10839 0
93.0462 1.88833 0
89.6813 0.330217 0
92.5439 2.77818 0
93.2227 2.12383 0
93.2344 2.35118 0
88.8943 1.41248 0
91.5601 2.91087 0
92.592 3.16495 0
88.8812 0.231479 0
92.4048 3.6665 0
92.0521 3.55125 0
91.0702 5.17812 0
86.5543 0.39704 0
92.2138 4.87258 0
90.2185 3.51689 0
88.3407 1.56336 0
87.9396 2.98249 0
91.9758 5.37932 0
90.8317 5.83387 0
86.997 0.608076 0
90.903 6.65878 0
87.4748 0.0018754 0
87.4786 -0.000126404 0
87.4851 0.00335965 0
87.4847 0.00401825 0
87.4897 -0.000515711 0
87.4971 0.00323702 0
87.498 0.0064962 0
87.4989 0.00428642 0
87.5033 7.44927e-05 0
87.5088 0.00614179 0
87.5082 0.00529109 0
87.5117 -0.000174855 0
87.5193 0.00662374 0
87.519 0.008736 0
87.5194 0.00593387 0
87.5231 0.000511465 0
87.5282 0.00852501 0
87.5274 0.00766269 0
87.5305 0.000530743 0
87.5387 0.0103103 0
87.5382 0.011329 0
87.5467 0.0150901 0
87.5392 0.00654569 0
87.5503 0.00861018 0
87.5586 0.0142343 0
87.5502 0.00994962 0
87.5602 0.0157087 0
87.5648 0.0114749 0
87.5706 0.0180706 0
87.5623 0.00983863 0
87.5747 0.0126735 0
87.582 0.0204545 0
87.574 0.0100978 0
87.592 0.0239307 0
87.5925 0.0238359 0
87.596 0.0169809 0
87.5865 0.0118534 0
87.5973 0.0181733 0
87.6079 0.0175646 0
87.6 0.011384 0
87.6184 0.0310066 0
87.614 0.0126765 0
87.6234 0.0202563 0
87.6137 0.0156278 0
87.6252 0.0260907 0
87.6429 0.0303633 0
87.6443 0.0173467 0
87.6376 0.0277789 0
87.6544 0.0319231 0
87.6549 0.036845 0
87.668 0.0186618 0
87.6624 0.0238906 0
87.6752 0.0335006 0
87.6869 0.0466698 0
87.6856 0.0227317 0
87.6941 0.0362377 0
87.7022 0.0490507 0
87.7039 0.0277088 0
87.6911 0.0347325 0
87.7175 0.0536142 0
87.7172 0.0526065 0
87.7183 0.0331546 0
87.7265 0.0237895 0
87.7358 0.0487604 0
87.693 0.014029 0
87.7515 0.0563306 0
87.7769 0.0679862 0
87.7609 0.0570673 0
87.7464 0.0335004 0
87.7845 0.0686284 0
87.7897 0.0603775 0
87.7935 0.0296958 0
87.7719 0.0552999 0
87.8045 0.0636138 0
87.8175 0.0725502 0
87.7733 0.0170432 0
87.805 0.0523364 0
87.8448 0.084688 0
87.8107 0.0426294 0
87.8526 0.0740549 0
87.8754 0.0885092 0
87.8504 0.0647833 0
87.8602 0.0268219 0
87.8806 0.0780698 0
87.8968 0.0898922 0
87.8691 0.0218535 0
87.9156 0.0988122 0
87.8813 0.0725235 0
87.9288 0.0816919 0
87.8938 0.0571322 0
87.9413 0.106428 0
87.9874 0.127397 0
87.9394 0.0329242 0
87.9458 0.087008 0
88.0092 0.134548 0
87.9822 0.0971406 0
87.9316 0.0409095 0
88.0203 0.126942 0
88.0358 0.132142 0
87.9871 0.0328705 0
88.0255 0.0583254 0
88.0576 0.116041 0
88.0773 0.153127 0
88.0085 0.0808778 0
88.1005 0.147637 0
88.1171 0.158269 0
88.1015 0.0543015 0
88.0908 0.0972092 0
88.155 0.17573 0
88.1453 0.149085 0
88.0522 0.048131 0
88.1669 0.167679 0
88.2068 0.180102 0
88.1705 0.0711605 0
88.1771 0.153519 0
88.2572 0.21271 0
88.2384 0.163307 0
88.124 0.052375 0
88.2754 0.199744 0
88.3304 0.240459 0
88.2154 0.0691782 0
88.3121 0.191734 0
88.2821 0.0898898 0
88.3456 0.199601 0
88.2657 0.113455 0
88.3799 0.254278 0
88.4247 0.253947 0
88.3244 0.0692411 0
88.4137 0.247414 0
88.4803 0.285161 0
88.4178 0.0736571 0
88.3848 0.208334 0
88.4632 0.242551 0
88.5189 0.288122 0
88.3978 0.0436563 0
88.5236 0.262552 0
88.6143 0.339487 0
88.588 0.284136 0
88.5169 0.086642 0
88.6501 0.295477 0
88.4791 0.111016 0
88.5233 0.251044 0
88.647 0.328149 0
88.742 0.371277 0
88.748 0.379601 0
88.4913 0.00788242 0
88.835 0.43134 0
88.8431 0.420474 0
88.855 0.369788 0
88.7867 0.182913 0
88.8787 0.198696 0
88.8747 0.414423 0
88.6586 0.11328 0
88.9822 0.467479 0
88.9704 0.457627 0
88.9718 0.411247 0
88.8607 0.119014 0
89.0441 0.457886 0
89.1603 0.569054 0
89.0103 0.213483 0
88.9679 0.227798 0
89.1129 0.459694 0
89.2684 0.591892 0
88.8952 0.141704 0
89.3043 0.624938 0
89.3364 0.609022 0
89.1442 0.119899 0
89.4627 0.694729 0
89.492 0.667614 0
89.545 0.574789 0
89.3325 0.254488 0
89.3095 0.28825 0
89.4719 0.644397 0
89.2204 0.187332 0
89.6265 0.766932 0
89.673 0.725019 0
89.6648 0.667454 0
89.4076 0.102107 0
89.8293 0.78713 0
89.8433 0.803839 0
89.6868 0.453063 0
89.9232 0.63306 0
89.6981 0.3681 0
89.8916 0.771362 0
89.5933 0.234244 0
90.0392 0.897835 0
90.0602 0.868936 0
89.6229 0.184882 0
90.1203 0.799388 0
90.2929 0.92205 0
90.2104 0.899668 0
90.0832 0.210354 0
90.4889 0.964863 0
90.5304 1.02852 0
90.0538 0.624718 0
90.4176 0.763103 0
90.1024 0.380918 0
90.7123 1.08252 0
90.2528 0.117584 0
90.7708 1.05258 0
90.7617 0.998051 0
90.0849 0.0936808 0
90.6912 0.90276 0
91.0671 1.06801 0
91.1543 1.07716 0
90.6228 0.270004 0
91.2223 1.05142 0
91.2692 1.12015 0
90.6182 0.68324 0
91.2671 0.740261 0
90.767 0.262686 0
91.4279 1.11865 0
90.7846 0.0978808 0
91.5661 1.04472 0
91.6507 1.02957 0
90.6269 0.0685221 0
91.4708 0.85101 0
91.9266 0.960396 0
92.0827 0.898333 0
91.0276 0.171538 0
91.9219 0.840884 0
92.2141 0.849596 0
91.5591 0.725727 0
91.9972 0.419884 0
91.0966 0.10738 0
91.9877 0.760085 0
91.0971 0.0391338 0
92.4515 0.745128 0
92.5341 0.600171 0
91.0064 0.0374698 0
92.2364 0.291599 0
92.6764 0.320331 0
92.8594 0.186919 0
91.06 -0.0987946 0
92.9453 -0.0140201 0
92.988 -0.149494 0
91.1975 -0.268254 0
93.0018 -0.179717 0
92.1986 -0.632685 0
91.4926 -0.0931087 0
91.3067 -0.000126057 0
93.132 -0.468884 0
92.8884 -0.864825 0
93.315 -1.0389 0
90.949 -0.0054099 0
92.5911 -1.31549 0
93.3088 -1.77208 0
90.8935 -0.123354 0
92.4267 -1.28358 0
93.2804 -2.3111 0
91.8586 -1.75179 0
90.8555 -0.656353 0
93.0854 -2.66082 0
92.9446 -2.95485 0
91.8306 -1.10591 0
91.2468 -3.1292 0
89.2019 -2.58899 0
92.5821 -2.9956 0
89.6389 -0.403896 0
92.5631 -3.94528 0
89.9693 7.26299 0
90.7071 6.48735 0
85.2638 1.92259 0
89.8622 7.22139 0
87.6104 6.61551 0
89.1987 7.85619 0
85.866 0.754474 0
88.2122 8.06284 0
87.0304 7.93989 0
84.5943 0.961675 0
87.106 8.46532 0
92.4703 -4.36579 0
89.8884 -0.251497 0
92.2014 -4.71192 0
90.954 -5.11693 0
90.4008 -4.40476 0
88.9761 -0.267237 0
91.1959 -5.70491 0
85.7896 7.73838 0
90.5378 -6.98554 0
88.7159 -1.39524 0
90.2124 -6.75277 0
89.3416 -7.72047 0
83.421 2.36465 0
88.9018 -7.57856 0
90.1317 -4.21925 0
89.3962 -6.86378 0
87.5221 -5.08357 0
86.5821 -0.835409 0
88.4515 -6.97494 0
87.6513 -7.38766 0
85.1627 8.16611 0
87.7245 -7.39826 0
87.4275 -0.452817 0
86.685 -7.75567 0
86.17 -8.46167 0
85.8899 -0.562023 0
85.071 -8.60976 0
85.5792 -6.31662 0
83.6843 -0.651287 0
84.0523 -8.76366 0
84.1089 -4.8609 0
85.8473 -3.82325 0
84.5947 -7.5014 0
83.476 -7.85594 0
86.1651 4.38428 0
82.4952 0.528406 0
85.5664 2.93279 0
84.201 -0.0730893 0
82.9303 -8.52252 0
84.782 7.73531 0
82.217 0.384292 0
84.2007 6.58305 0
82.058 -8.38819 0
83.7644 -1.71484 0
81.3294 -6.12553 0
84.2038 8.81835 0
81.0818 2.02588 0
84.1021 8.74427 0
81.8518 7.29767 0
81.3723 0.413291 0
82.4971 7.67022 0
81.9452 -6.37042 0
83.2654 -0.474204 0
81.198 -8.51709 0
81.2142 -8.28507 0
82.8747 8.23754 0
80.9323 7.85682 0
80.6646 0.040329 0
82.0043 8.10916 0
80.1051 5.08404 0
80.6713 2.28921 0
80.2691 -8.46708 0
81.1498 -1.0995 0
80.6039 -8.3421 0
79.8052 8.3101 0
79.6355 -7.73676 0
80.2593 -1.07856 0
79.8936 -3.40047 0
78.3662 -7.43407 0
81.3912 -4.10878 0
78.2229 -7.18947 0
79.7399 -0.289549 0
77.3032 -6.86997 0
79.4191 2.86619 0
80.0216 0.461227 0
79.3656 6.97791 0
79.3862 0.115798 0
79.1692 8.18741 0
78.8761 7.68578 0
79.0574 0.184853 0
78.1028 6.72729 0
78.8232 0.133419 0
78.6853 -6.42612 0
79.7389 -0.57567 0
79.9152 6.04812 0
77.9438 0.739118 0
77.653 6.31788 0
77.1851 -6.83117 0
79.8526 -0.231023 0
75.5475 -5.84081 0
77.9099 -0.44189 0
76.3652 -5.74814 0
78.671 2.55125 0
77.8595 0.120423 0
79.3999 -5.23146 0
77.8621 -0.113264 0
75.6641 -5.4118 0
77.0525 5.70082 0
77.0541 -4.27295 0
77.8883 -0.244812 0
75.9585 -4.63556 0
78.0391 3.14528 0
75.8831 1.9978 0
76.5437 4.92843 0
77.6953 -0.987023 0
75.8101 -5.13811 0
77.839 0.402976 0
76.4815 6.65041 0
77.7896 -2.38104 0
77.8609 -0.0847036 0
75.4719 -4.63364 0
76.2048 5.94246 0
77.8731 0.71834 0
76.1387 4.64448 0
75.866 4.5847 0
77.8337 0.380964 0
75.0632 4.0816 0
74.62 -4.16421 0
77.8593 -0.29627 0
74.3182 -4.15567 0
76.6538 -1.98209 0
77.8664 -0.202186 0
73.6874 -2.83253 0
75.1319 5.07871 0
77.8023 0.622785 0
76.3468 3.25358 0
74.2921 -2.57336 0
77.7824 -0.311855 0
73.6478 -2.34384 0
74.0123 3.73775 0
77.7934 0.266679 0
74.4083 3.52021 0
74.702 2.87271 0
77.8602 0.0355338 0
73.8743 3.05932 0
74.9733 -1.51477 0
77.7413 -0.542748 0
74.271 -1.33439 0
73.1055 -0.850182 0
77.1173 -0.926853 0
73.1545 -0.719761 0
76.8309 0.960759 0
77.8124 0.0769917 0
75.9595 2.43909 0
73.6528 2.46436 0
77.6977 0.0594889 0
73.2289 1.55639 0
77.4411 -0.236498 0
77.8492 -0.111897 0
73.1527 -0.236905 0
73.6724 -0.0931486 0
77.8308 -0.066233 0
75.8611 0.308582 0
73.8383 0.527952 0
77.8388 -0.062345 0
77.2641 -5.66286 0
77.9455 -0.433527 0
77.8522 0.132359 0
78.1201 6.88945 0
79.0748 -7.74289 0
82.1238 -0.94577 0
80.4963 0.996833 0
81.7712 8.61606 0
77.8145 0.279953 0
74.5804 4.85979 0
74.0465 -2.84065 0
77.8173 -0.200752 0
77.8997 -0.573211 0
77.6251 -3.67418 0
77.9745 0.802422 0
77.9162 0.201155 0
77.8252 -0.000758229 0
73.7203 2.05562 0
79.346 0.466785 0
78.4278 1.57801 0
78.7574 -1.37409 0
80.3055 -0.691561 0
85.9782 -1.26523 0
85.5516 -8.45321 0
87.4597 8.06176 0
85.5057 0.467675 0
77.7881 1.66647 0
79.7198 8.00464 0
78.6311 -7.08828 0
79.3069 -2.31655 0
76.9384 -1.46093 0
74.6612 -0.222927 0
76.239 5.83659 0
78.1111 1.89472 0
77.9475 -1.79129 0
74.8462 -4.63904 0
91.946 -5.35197 0
88.6532 -0.658427 0
88.2206 0.787442 0
92.3969 4.44792 0
77.9698 -0.815921 0
77.8887 -0.0452557 0
77.8808 0.14835 0
78.9843 0.758329 0
83.2074 0.733703 0
82.838 4.10303 0
81.2727 -1.98968 0
84.4217 -1.74329 0
81.7456 4.89839 0
84.7188 8.2993 0
83.5404 -8.68169 0
82.6392 -1.91894 0
86.7599 1.60682 0
87.8509 5.01373 0
86.3994 -2.7844 0
87.5732 -0.0412437 0
90.8343 -0.248911 0
93.2736 -1.28662 0
93.1238 0.493964 0
90.003 0.0275223 0
91.0608 0.00390896 0
92.5746 0.582273 0
92.3574 -0.56424 0
91.1861 0.0347158 0
79.056 -1.44932 0
78.4789 -0.574886 0
78.3993 1.23839 0
79.2256 0.952359 0
78.2334 1.22817 0
77.8874 0.241989 0
77.8591 -0.106514 0
78.1537 -1.12935 0
89.6768 0.948176 0
90.9193 1.8684 0
90.0053 -1.13786 0
90.2283 -0.16887 0
75.9915 -0.960241 0
77.85 -0.156033 0
77.4803 -0.439927 0
77.8689 -0.376416 0
77.8549 0.204806 0
77.8906 0.968085 0
91.7185 0.97651 0
90.911 0.153572 0
91.0239 -0.00528216 0
91.4666 -1.05224 0
81.7427 -0.0391943 0
80.9717 -2.82751 0
82.0525 1.80512 0
80.7265 0.448147 0
77.8771 4.05148 0
77.4055 7.32491 0
77.1426 -6.26927 0
78.3346 -3.23281 0
78.8223 -2.11471 0
77.5613 -2.23247 0
77.9757 4.64379 0
78.2499 2.22769 0
91.1887 0.0469968 0
90.9034 0.141918 0
91.101 -0.0483617 0
92.0787 0.103105 0
79.8277 -5.42781 0
80.9197 -5.26313 0
80.4955 4.6438 0
81.0624 8.53671 0
79.145 -3.98446 0
80.317 -2.31535 0
80.1532 3.11959 0
79.2925 1.53912 0
91.0062 1.13222 0
90.4611 0.140906 0
90.6713 -0.0117392 0
90.6156 -1.01642 0
77.3241 1.01677 0
77.8458 0.0290244 0
91.0881 -0.0568866 0
91.7285 -0.353235 0
91.4447 0.24712 0
90.9409 0.03796 0
78.8521 -0.958032 0
78.371 -1.33455 0
79.1711 1.74506 0
78.2423 0.735998 0
77.8944 -0.147283 0
78.1574 -0.700412 0
77.9704 0.315658 0
77.8688 0.136396 0
74.1503 1.71477 0
76.9766 1.52633 0
87.1637 -3.14573 0
90.5297 -6.33204 0
91.499 5.77806 0
86.8742 2.26913 0
76.8344 -2.31707 0
74.7842 -2.90336 0
89.8521 0.153504 0
90.1168 0.866091 0
89.2172 0.0742623 0
89.799 0.82321 0
90.1354 -0.844077 0
89.9683 -0.139315 0
89.5836 -0.689557 0
89.4879 -0.0141214 0
90.8266 -0.212584 0
90.9535 -0.612221 0
90.8009 0.385381 0
90.5696 0.00806233 0
77.8577 0.179115 0
77.6884 0.54048 0
76.473 0.452123 0
74.2422 0.846485 0
77.7958 -0.251006 0
77.8412 -0.169634 0
77.3888 0.274647 0
77.3223 -0.752479 0
93.0848 -2.7127 0
89.9228 -1.74075 0
90.9085 2.20731 0
93.2556 1.58269 0
78.0318 -0.0632648 0
78.1368 -0.365216 0
77.8949 0.053419 0
78.3191 0.261498 0
90.2896 -0.202756 0
90.3186 -0.524408 0
90.3328 0.350452 0
89.9734 0.113648 0
89.0599 0.165277 0
89.2343 0.517052 0
89.265 -0.604382 0
89.1429 -0.146706 0
78.4927 -0.899853 0
79.429 -2.13737 0
78.8617 1.61375 0
78.4759 1.27357 0
79.2012 2.88323 0
77.6047 1.85339 0
78.1463 -1.9249 0
78.8231 -2.79624 0
91.5205 -0.529731 0
92.4917 0.305537 0
92.6618 -0.300338 0
91.942 0.565573 0
77.7043 -1.15112 0
77.8241 -1.36753 0
77.8448 1.08489 0
77.356 1.30904 0
89.0907 0.537187 0
88.8134 0.161328 0
88.8682 -0.100784 0
89.0377 -0.458995 0
85.2494 4.26319 0
87.2706 7.11798 0
86.7619 -8.38609 0
86.3052 -3.33935 0
75.2634 -3.4272 0
77.5858 -3.51636 0
84.8689 -3.05948 0
85.5211 -1.09662 0
83.8569 0.453861 0
87.2129 3.10021 0
74.863 4.62799 0
76.7492 2.73475 0
89.7025 -0.0514503 0
89.8779 -0.534778 0
89.7594 0.352647 0
89.6728 0.0950933 0
89.1015 -0.368448 0
88.8696 -1.50936 0
89.4259 2.07927 0
88.4414 0.271178 0
83.2168 1.3963 0
81.454 0.350359 0
82.5895 -0.336807 0
83.2607 -3.1083 0
91.4098 0.318583 0
91.6994 0.848012 0
91.8542 -0.923264 0
91.715 -0.0571057 0
82.2432 -3.82977 0
83.3465 -1.83565 0
82.5569 2.71012 0
85.1348 5.98109 0
88.7234 0.329416 0
88.5989 0.0626003 0
88.7559 -0.0985172 0
88.7206 -0.343249 0
89.2398 -0.181678 0
89.3827 -0.00934607 0
89.3591 0.10072 0
89.2184 0.426993 0
79.9674 0.498077 0
79.7224 1.30473 0
79.9858 -1.14708 0
80.8405 -0.31929 0
81.5223 2.82664 0
79.8867 1.94978 0
79.2698 -2.83582 0
78.4298 -2.86478 0
90.8674 -0.47829 0
90.6133 -0.276896 0
90.4263 0.373431 0
91.3778 0.619392 0
79.8891 3.84709 0
80.3937 2.57159 0
79.333 -0.825492 0
79.1586 -0.294084 0
78.9942 0.266076 0
79.7282 0.888682 0
76.5955 -0.87562 0
77.5559 -1.34965 0
92.4431 -3.62043 0
89.969 -2.05774 0
89.4122 3.73756 0
92.8345 3.68129 0
77.9087 -0.866001 0
77.8862 -0.143481 0
77.8271 0.198489 0
77.9818 0.847907 0
78.2471 0.0872974 0
78.2729 0.626607 0
78.4264 -0.343365 0
78.5765 -0.0198142 0
75.4681 -0.269031 0
73.1683 0.151637 0
85.2559 3.21883 0
89.3733 2.96453 0
88.0529 -2.50847 0
88.6503 -4.96029 0
77.6151 2.0689 0
77.1706 1.15516 0
77.859 -0.0254044 0
77.6742 -0.0508293 0
80.4645 6.83489 0
78.3427 4.06032 0
80.0924 -4.29875 0
79.1287 -8.10708 0
77.3966 0.785369 0
77.7834 0.424556 0
90.8371 0.512706 0
91.181 1.11642 0
90.8972 -1.01696 0
90.8087 -0.200279 0
88.8799 -0.118886 0
89.065 -0.0803912 0
89.0414 0.0690112 0
88.9627 0.397797 0
93.0262 0.414659 0
91.8613 1.36621 0
91.9363 -0.54559 0
93.1519 -0.669041 0