# vtk DataFile Version 3.0
Unstructured Grid for Triangles
ASCII
DATASET UNSTRUCTURED_GRID
POINTS 29612 DOUBLE
-2.72397e-05 1.23686e-06 0
-2.95789e-05 9.5838e-07 0
-2.77865e-05 -3.1235e-07 0
0.0002024 5e-05 0
0.000203975 4.9875e-05 0
0.000205 5e-05 0
0.000203975 -4.9875e-05 0
0.0002024 -5e-05 0
0.000205 -5e-05 0
0.00020295 4.975e-05 0
0.00020295 -4.975e-05 0
0.000201925 4.9625e-05 0
0.000201925 -4.9625e-05 0
-5.29747e-05 -4.79887e-05 0
-5.5e-05 -5e-05 0
-5.24e-05 -5e-05 0
-5.05983e-05 -4.84325e-05 0
-4.98e-05 -5e-05 0
-4.72e-05 -5e-05 0
-4.83864e-05 -4.87761e-05 0
-4.46e-05 -5e-05 0
-4.59e-05 -4.84239e-05 0
-4.29453e-05 -4.24878e-05 0
-4.47486e-05 -4.20717e-05 0
-4.41829e-05 -4.36609e-05 0
-5.12578e-05 -4.62101e-05 0
-4.93077e-05 -4.53594e-05 0
-5.0706e-05 -4.39006e-05 0
-4.19243e-05 -4.77545e-05 0
-4.40307e-05 -4.71837e-05 0
-4.3691e-05 -4.86724e-05 0
-5.16129e-05 -4.20948e-05 0
-4.95355e-05 -4.15432e-05 0
-5.11646e-05 -4.0128e-05 0
-3.94697e-05 -4.81197e-05 0
-4.06302e-05 -4.55143e-05 0
-5.37257e-05 -3.88197e-05 0
-5.31099e-05 -4.07297e-05 0
-5.23982e-05 -3.88328e-05 0
-3.70063e-05 -4.72956e-05 0
-3.68e-05 -5e-05 0
-3.5308e-05 -4.85302e-05 0
-5.072e-05 -3.7867e-05 0
-4.85506e-05 -3.83975e-05 0
-4.90949e-05 -3.59622e-05 0
-3.37127e-05 -4.84331e-05 0
-3.16e-05 -5e-05 0
-3.26495e-05 -4.7415e-05 0
-5.5e-05 -3.5e-05 0
-5.31201e-05 -3.70361e-05 0
-5.28367e-05 -3.46817e-05 0
-3.63898e-05 -4.48809e-05 0
-3.83315e-05 -4.60336e-05 0
-3.26269e-06 -4.15503e-05 0
-5.99662e-06 -4.09556e-05 0
-5.46944e-06 -4.29488e-05 0
-5.29747e-05 4.79887e-05 0
-5.5e-05 5e-05 0
-5.5e-05 4.75e-05 0
-5.5e-05 4.5e-05 0
-5.34834e-05 4.29171e-05 0
-5.26943e-05 4.42611e-05 0
-5.34026e-05 4.60176e-05 0
-5.31099e-05 4.07297e-05 0
-5.11672e-05 4.01178e-05 0
-5.16129e-05 4.20948e-05 0
-5.24e-05 5e-05 0
-5.05983e-05 4.84325e-05 0
-5.31201e-05 3.70361e-05 0
-5.072e-05 3.7867e-05 0
-5.23982e-05 3.88328e-05 0
-4.8341e-05 4.69132e-05 0
-4.83679e-05 4.87539e-05 0
-5.28367e-05 3.46817e-05 0
-5.5e-05 3.25e-05 0
-5.25657e-05 3.28474e-05 0
-4.98e-05 5e-05 0
-5.30382e-05 3.125e-05 0
-4.19243e-05 4.77545e-05 0
-4.40015e-05 4.7335e-05 0
-4.25917e-05 4.63678e-05 0
-4.35138e-05 2.62661e-05 0
-4.14982e-05 2.74462e-05 0
-4.35654e-05 2.85217e-05 0
-4.59e-05 4.84239e-05 0
-4.36852e-05 4.87027e-05 0
-4.46e-05 5e-05 0
-5.33308e-05 2.92503e-05 0
-5.5e-05 2.75e-05 0
-5.23377e-05 2.76953e-05 0
-4.25282e-05 4.46352e-05 0
-4.09368e-05 4.35728e-05 0
-4.06302e-05 4.55143e-05 0
0.0002009 4.95e-05 0
0.0001998 5e-05 0
0.000199875 4.9375e-05 0
0.00019885 4.925e-05 0
0.0001972 5e-05 0
0.000197825 4.9125e-05 0
0.0001968 4.9e-05 0
0.000195775 4.8875e-05 0
0.0001946 5e-05 0
0.00019475 4.875e-05 0
0.000193725 4.8625e-05 0
0.000192 5e-05 0
0.0001927 4.85e-05 0
0.000191675 4.8375e-05 0
0.00019065 4.825e-05 0
0.0001894 5e-05 0
0.000189625 4.8125e-05 0
0.0001886 4.8e-05 0
0.0001868 5e-05 0
0.000187575 4.7875e-05 0
0.00018655 4.775e-05 0
0.000185515 4.8575e-05 0
0.0001842 5e-05 0
0.0001845 4.75e-05 0
0.000185525 4.7625e-05 0
0.000182564 4.829e-05 0
0.0001816 5e-05 0
0.00018245 4.725e-05 0
0.000183475 4.7375e-05 0
0.000181425 4.7125e-05 0
0.000180295 4.82657e-05 0
0.000179 5e-05 0
0.000179375 4.6875e-05 0
0.0001804 4.7e-05 0
0.000178168 4.80619e-05 0
0.0001764 5e-05 0
0.000177325 4.6625e-05 0
0.00017835 4.675e-05 0
0.000176428 4.76631e-05 0
0.0001763 4.65e-05 0
0.0001738 5e-05 0
0.0001751 4.84164e-05 0
0.000175275 4.6375e-05 0
0.000174025 4.75632e-05 0
0.0001712 5e-05 0
0.000172615 4.78449e-05 0
0.0001722 4.6e-05 0
0.000173225 4.6125e-05 0
0.00017015 4.575e-05 0
0.000171243 4.7381e-05 0
0.000169554 4.79999e-05 0
0.0001686 5e-05 0
0.000167507 4.79751e-05 0
0.000168498 4.64861e-05 0
0.000166 5e-05 0
0.00016558 4.71459e-05 0
0.000167135 4.62887e-05 0
0.0001681 4.55e-05 0
0.00016605 4.525e-05 0
0.000167075 4.5375e-05 0
0.000164059 4.61599e-05 0
0.00016394 4.79552e-05 0
0.000162881 4.6615e-05 0
0.000162975 4.4875e-05 0
0.000165025 4.5125e-05 0
0.000164 4.5e-05 0
0.000161754 4.58641e-05 0
0.000161722 4.78101e-05 0
0.000159956 4.58294e-05 0
0.000160925 4.4625e-05 0
0.00016195 4.475e-05 0
0.000157667 4.60322e-05 0
0.000158875 4.4375e-05 0
0.000159194 4.80155e-05 0
0.0001599 4.45e-05 0
0.00015785 4.425e-05 0
0.000155808 4.56757e-05 0
0.000155647 4.76701e-05 0
0.000154059 4.66642e-05 0
0.000153756 4.50083e-05 0
0.000154839 4.50446e-05 0
0.000156825 4.4125e-05 0
0.000151954 4.80508e-05 0
0.000154052 4.8477e-05 0
0.000153 5e-05 0
0.000154775 4.3875e-05 0
0.000152142 4.56625e-05 0
0.000152821 4.45753e-05 0
0.00015375 4.375e-05 0
0.0001504 5e-05 0
0.000149644 4.85168e-05 0
0.000151787 4.43178e-05 0
0.000152725 4.3625e-05 0
0.000150675 4.3375e-05 0
0.0001517 4.35e-05 0
0.000148119 4.50887e-05 0
0.000148072 4.75757e-05 0
0.000146584 4.63516e-05 0
0.000150008 4.6396e-05 0
0.000149351 4.4543e-05 0
0.00015061 4.46252e-05 0
0.0001476 4.3e-05 0
0.000148625 4.3125e-05 0
0.000146492 4.82975e-05 0
0.000144888 4.73562e-05 0
0.000146676 4.44259e-05 0
0.000145255 4.53656e-05 0
0.000145652 4.38669e-05 0
0.000141401 4.79821e-05 0
0.0001426 5e-05 0
0.00014 5e-05 0
0.000144374 4.38862e-05 0
0.00014555 4.275e-05 0
0.0001435 4.25e-05 0
0.000144525 4.2625e-05 0
0.000142746 4.38121e-05 0
0.000141288 4.43191e-05 0
0.000141707 4.32778e-05 0
0.00013921 4.38992e-05 0
0.000140355 4.5932e-05 0
0.000138302 4.5922e-05 0
0.000142912 4.58869e-05 0
0.000140592 4.30037e-05 0
0.00014145 4.225e-05 0
0.000136458 4.5869e-05 0
0.000137106 4.4063e-05 0
0.0001394 4.2e-05 0
0.000138259 4.28915e-05 0
0.000137484 4.77094e-05 0
0.000139166 4.78902e-05 0
0.00013586 4.78984e-05 0
0.000133449 4.78649e-05 0
0.000134717 4.61848e-05 0
0.000137256 4.25134e-05 0
0.000135323 4.24541e-05 0
0.000136325 4.1625e-05 0
0.000136122 4.2876e-05 0
0.000131206 4.47284e-05 0
0.000133168 4.56738e-05 0
0.000131773 4.65243e-05 0
0.000134756 4.40343e-05 0
0.000132747 4.36463e-05 0
0.000133483 4.26786e-05 0
0.000131081 4.1867e-05 0
0.000132382 4.22815e-05 0
0.000131507 4.3122e-05 0
0.000131059 4.80123e-05 0
0.00013325 4.125e-05 0
0.00012915 4.075e-05 0
0.00012982 4.18199e-05 0
0.000128915 4.26216e-05 0
0.000126366 4.47574e-05 0
0.000127331 4.30908e-05 0
0.000128781 4.44872e-05 0
0.000125336 4.28376e-05 0
0.000130218 4.31077e-05 0
0.000127894 4.16344e-05 0
0.000124774 4.69608e-05 0
0.000127668 4.64148e-05 0
0.000126591 4.8331e-05 0
0.000126722 4.18415e-05 0
0.000125768 4.11931e-05 0
0.000124326 4.13546e-05 0
0.00012505 4.025e-05 0
0.000122408 4.50118e-05 0
0.000120276 4.47432e-05 0
0.00012139 4.32235e-05 0
0.000124336 4.44132e-05 0
0.000123056 4.27595e-05 0
0.000122977 4.09049e-05 0
0.00012185 4.69217e-05 0
0.000122676 4.85947e-05 0
0.000120525 4.86094e-05 0
0.000121479 4.13153e-05 0
0.000119547 4.24221e-05 0
0.000120249 4.07448e-05 0
0.000119925 3.9625e-05 0
0.000119346 4.06114e-05 0
0.000117479 4.47279e-05 0
0.000114726 4.45259e-05 0
0.00011571 4.27814e-05 0
0.000119443 4.66611e-05 0
0.000117447 4.21596e-05 0
0.000118421 4.0752e-05 0
0.000117409 4.04437e-05 0
0.000116775 4.70073e-05 0
0.0001179 4.855e-05 0
0.000115473 4.84802e-05 0
0.00011685 3.925e-05 0
0.000117875 3.9375e-05 0
0.000115454 4.00551e-05 0
0.0001148 3.9e-05 0
0.000115825 3.9125e-05 0
0.000111704 4.23398e-05 0
0.000113786 4.26731e-05 0
0.000112589 4.43871e-05 0
0.000113234 4.06671e-05 0
0.000114754 4.13371e-05 0
0.0001106 4.42326e-05 0
0.000109703 4.24261e-05 0
0.00011275 3.875e-05 0
0.000113775 3.8875e-05 0
0.000110211 4.80875e-05 0
0.000108244 4.71951e-05 0
0.000109312 4.58413e-05 0
0.000111755 3.99116e-05 0
0.00010944 3.92972e-05 0
0.000110415 4.05876e-05 0
0.000108839 4.07536e-05 0
0.000106472 4.76905e-05 0
0.000107274 4.57868e-05 0
0.000108011 3.92415e-05 0
0.000106885 4.04365e-05 0
0.000106625 3.88708e-05 0
0.000105286 4.19254e-05 0
0.000105055 3.95469e-05 0
0.000104215 4.39764e-05 0
0.000106346 4.40629e-05 0
0.000100945 4.51249e-05 0
0.000102825 4.5614e-05 0
0.000101189 4.68452e-05 0
0.000107625 3.8125e-05 0
0.000105575 3.7875e-05 0
0.0001066 3.8e-05 0
0.000103352 4.76905e-05 0
0.000101803 4.8465e-05 0
0.000103685 3.89398e-05 0
0.00010245 3.8825e-05 0
0.000103525 3.7625e-05 0
0.000101092 3.99779e-05 0
0.000101267 3.82619e-05 0
0.000101382 4.2025e-05 0
0.000103187 4.05286e-05 0
0.000103359 4.24605e-05 0
9.87383e-05 4.5447e-05 0
9.99411e-05 4.35161e-05 0
9.744e-05 4.33145e-05 0
0.00010045 3.725e-05 0
0.000101475 3.7375e-05 0
9.70845e-05 4.65215e-05 0
9.52614e-05 4.67664e-05 0
9.61768e-05 4.49944e-05 0
9.9729e-05 3.87704e-05 0
9.78901e-05 3.9598e-05 0
9.85823e-05 3.81492e-05 0
9.62289e-05 3.93709e-05 0
9.74259e-05 3.81279e-05 0
9.7375e-05 3.6875e-05 0
9.63045e-05 3.76631e-05 0
9.58e-05 5e-05 0
9.32e-05 5e-05 0
9.47542e-05 4.8457e-05 0
9.49675e-05 3.85246e-05 0
9.36214e-05 3.89472e-05 0
9.40006e-05 3.74906e-05 0
9.66411e-05 4.12573e-05 0
9.44241e-05 4.07079e-05 0
9.03569e-05 4.24993e-05 0
9.21701e-05 4.02409e-05 0
9.27439e-05 4.27744e-05 0
8.89795e-05 4.09067e-05 0
9.03071e-05 4.0248e-05 0
9.25447e-05 3.77721e-05 0
9.3275e-05 3.6375e-05 0
9.07708e-05 3.87127e-05 0
9.11303e-05 3.70839e-05 0
9.11933e-05 4.55145e-05 0
9.30678e-05 4.73279e-05 0
9.11886e-05 4.82603e-05 0
8.87724e-05 3.88076e-05 0
8.99595e-05 3.75116e-05 0
9.02e-05 3.6e-05 0
8.89241e-05 3.6954e-05 0
8.36977e-05 4.59472e-05 0
8.36223e-05 4.83578e-05 0
8.20467e-05 4.74142e-05 0
8.71227e-05 4.03557e-05 0
8.61e-05 3.55e-05 0
8.68368e-05 3.65714e-05 0
8.5484e-05 3.6588e-05 0
8.47735e-05 4.02845e-05 0
8.23121e-05 4.21599e-05 0
8.26582e-05 3.98147e-05 0
8.46943e-05 4.2454e-05 0
8.38832e-05 3.78613e-05 0
8.35569e-05 3.63808e-05 0
8.44098e-05 3.6291e-05 0
8.5075e-05 3.5375e-05 0
8.51465e-05 4.77163e-05 0
8.3025e-05 3.5125e-05 0
8.22824e-05 3.68659e-05 0
8.1446e-05 3.57362e-05 0
8.05884e-05 3.71794e-05 0
7.53471e-05 4.77524e-05 0
7.38313e-05 4.73927e-05 0
7.39102e-05 4.61526e-05 0
7.9826e-05 3.58588e-05 0
7.88607e-05 3.76287e-05 0
7.81733e-05 3.57987e-05 0
8.16783e-05 3.84471e-05 0
8.07975e-05 4.04095e-05 0
7.52138e-05 4.04775e-05 0
7.67682e-05 4.17043e-05 0
7.49617e-05 4.21803e-05 0
7.52903e-05 3.84008e-05 0
7.38293e-05 3.93136e-05 0
[...]
CELL_DATA 58684
VECTORS velocity DOUBLE
74.318 0.337186 0
87.6816 0.000166116 0
87.6557 -3.55255e-05 0
87.6864 -0.000518876 0
87.6593 0.00016789 0
87.6914 -0.00284463 0
87.6651 0.00336761 0
77.8861 -0.0011237 0
77.904 -0.0247656 0
78.0246 -0.00225032 0
78.1469 -0.00455541 0
78.2154 -0.410103 0
77.9442 -0.109704 0
78.2991 -0.135257 0
77.9211 -0.184833 0
78.5072 -0.169963 0
77.887 -0.112961 0
78.8824 -0.157707 0
77.9781 -0.317976 0
79.4063 -0.110919 0
77.899 -0.11627 0
78.8496 -0.37037 0
85.5522 -2.16857 0
77.8645 0.0125173 0
77.8706 0.0514666 0
77.8638 0.0249731 0
77.9151 0.142644 0
77.9037 0.0236239 0
77.9078 0.188658 0
78.021 0.0490612 0
77.8964 0.145553 0
77.9722 0.0335382 0
77.86 0.143865 0
78.374 0.162593 0
78.0809 1.13483 0
78.2196 0.0689319 0
77.9077 0.179989 0
78.4563 0.354671 0
87.6954 -0.000853848 0
87.7001 0.00011611 0
87.7079 -0.00488117 0
87.7081 -0.00346958 0
87.7158 0.000443567 0
87.7237 -0.00402374 0
87.725 -0.00719351 0
87.7264 -0.00421276 0
87.7329 -5.15817e-05 0
87.7388 -0.00689866 0
87.7383 -0.00582913 0
87.7446 -9.0448e-05 0
87.7525 -0.00743441 0
87.7527 -0.00917661 0
87.7537 -0.005643 0
87.7591 -0.000629787 0
87.7642 -0.00895678 0
87.7635 -0.00755886 0
87.7689 -0.000958718 0
87.777 -0.01126 0
87.7767 -0.0117707 0
87.7779 -0.00650961 0
87.7849 -0.00043549 0
87.7875 -0.0152182 0
87.7915 -0.00986608 0
87.8 -0.00144961 0
87.8018 -0.0174014 0
87.8019 -0.0156353 0
87.8076 -0.0119529 0
87.8121 -0.00130714 0
87.8129 -0.0181446 0
87.8187 -0.0128662 0
87.8234 -0.00146918 0
87.8254 -0.0204297 0
87.8301 -0.0155916 0
87.8361 -0.0240314 0
87.839 -0.00108284 0
87.8426 -0.0181478 0
87.8457 -0.0113863 0
87.8527 -0.00217025 0
87.8559 -0.0258255 0
87.8699 -0.0205831 0
87.8586 -0.0211172 0
87.8696 -0.00228265 0
87.8749 -0.01335 0
87.8717 -0.0259809 0
87.8915 -0.0168274 0
87.8881 -0.0225916 0
87.8892 -0.0303318 0
87.8975 -0.0371632 0
87.9092 -0.0237351 0
87.9221 -0.0335138 0
87.9044 -0.029124 0
87.9171 -0.0415498 0
87.9267 -0.031923 0
87.9256 -0.0312623 0
87.9333 -0.043699 0
87.9556 -0.0400708 0
87.9389 -0.0341865 0
87.9493 -0.046468 0
87.963 -0.0525872 0
87.9622 -0.0386501 0
87.9811 -0.0480742 0
87.9673 -0.0432165 0
87.98 -0.0147919 0
87.9878 -0.053414 0
88.0013 -0.050136 0
87.996 -0.0552835 0
87.9956 -0.0139689 0
88.0077 -0.0587402 0
88.0206 -0.0654773 0
88.0246 -0.0370345 0
88.0238 -0.0393806 0
88.0143 -0.0533634 0
88.0422 -0.0697092 0
88.0335 -0.0286793 0
88.063 -0.063263 0
88.0483 -0.0409217 0
88.0669 -0.00374976 0
88.0719 -0.0719029 0
88.0832 -0.0826079 0
88.1055 -0.0727077 0
88.1139 -0.0556331 0
88.077 -0.0429774 0
88.1131 -0.0830299 0
88.1315 -0.0563469 0
88.1347 -0.08703 0
88.1058 -0.0321884 0
88.1434 -0.0788976 0
88.1416 -0.0305516 0
88.1542 -0.0905758 0
88.1756 -0.103681 0
88.1895 -0.0618432 0
88.1913 -0.0873169 0
88.16 -0.0410902 0
88.2227 -0.11138 0
88.168 -0.0329027 0
88.2084 -0.111193 0
88.2572 -0.124273 0
88.2596 -0.0879183 0
88.2713 -0.106471 0
88.2438 -0.103635 0
88.2665 -0.114087 0
88.2241 -0.0482166 0
88.3 -0.130439 0
88.3216 -0.143793 0
88.3333 -0.0940999 0
88.2696 -0.0705568 0
88.3125 -0.12325 0
88.3297 -0.144231 0
88.282 -0.0294814 0
88.3821 -0.154836 0
88.3942 -0.171288 0
88.4115 -0.106032 0
88.3415 -0.0910901 0
88.3997 -0.144847 0
88.4177 -0.170635 0
88.3513 -0.0315119 0
88.4347 -0.196856 0
88.4732 -0.210573 0
88.4708 -0.148019 0
88.475 -0.171861 0
88.5067 -0.156483 0
88.5033 -0.218059 0
88.4787 -0.0580762 0
88.5094 -0.20576 0
88.5652 -0.209948 0
88.5233 -0.0681461 0
88.6178 -0.24753 0
88.6352 -0.228704 0
88.6116 -0.146511 0
88.6518 -0.111662 0
88.6233 -0.25422 0
88.6547 -0.279201 0
88.6259 -0.0571371 0
88.7081 -0.283296 0
88.7462 -0.289974 0
88.6745 -0.208323 0
88.7174 -0.132431 0
88.7474 -0.171908 0
88.7757 -0.331093 0
88.7797 -0.113006 0
88.8235 -0.309772 0
88.847 -0.304011 0
88.8704 -0.35451 0
88.8015 -0.0060788 0
88.9508 -0.353244 0
88.8489 -0.273622 0
88.9421 -0.247731 0
88.9998 -0.2888 0
88.9943 -0.391948 0
89.0376 -0.3954 0
88.9004 -0.089549 0
89.0658 -0.384277 0
89.0923 -0.442065 0
89.1017 -0.425256 0
89.1488 -0.0985285 0
89.0796 -0.337665 0
89.234 -0.489631 0
89.2597 -0.370193 0
89.1897 -0.312286 0
89.2798 -0.515912 0
89.2703 -0.510631 0
89.1427 -0.0888561 0
89.3544 -0.566089 0
89.385 -0.532622 0
89.5071 -0.105055 0
89.4667 -0.583239 0
89.3306 -0.40993 0
89.5374 -0.373569 0
89.596 -0.480705 0
89.5093 -0.529064 0
89.5369 -0.633193 0
89.5566 -0.228094 0
89.6813 -0.612031 0
89.6476 -0.702954 0
89.8094 -0.714929 0
89.7366 -0.012502 0
89.7591 -0.587742 0
89.8189 -0.739019 0
89.6501 -0.182109 0
89.8747 -0.777084 0
89.9404 -0.449783 0
89.9171 -0.81229 0
90.0705 -0.252736 0
90.0575 -0.702753 0
90.0318 -0.825605 0
89.9457 -0.126618 0
90.1591 -0.852922 0
90.3143 -0.832517 0
90.1697 -0.707229 0
90.2007 -0.428462 0
90.3475 -0.955209 0
90.3282 -0.376017 0
90.4584 -0.0645485 0
90.2886 -0.753603 0
90.4492 -0.947312 0
90.5314 -1.01648 0
90.5242 -0.320393 0
90.654 -0.879881 0
90.7977 -0.96508 0
90.5812 -0.107397 0
90.9295 -0.940473 0
90.8561 -1.04816 0
90.717 -0.77539 0
90.7523 -0.374724 0
90.8598 -0.438964 0
90.9945 -1.05571 0
90.8829 -0.00768927 0
91.0942 -1.12603 0
91.2178 -1.07101 0
91.1778 -1.12624 0
91.1094 -0.245909 0
91.2695 -0.919257 0
91.5033 -0.935936 0
91.0599 -0.00579447 0
91.593 -1.11005 0
91.754 -0.94584 0
91.4167 -0.683618 0
91.2297 -0.282223 0
91.7537 -1.06842 0
91.3883 -0.351276 0
91.16 -0.0166905 0
91.6744 -0.720078 0
91.9999 -0.975196 0
92.1572 -0.912062 0
91.3349 -0.076333 0
92.0968 -0.623136 0
92.2388 -0.818235 0
91.1759 0.0302946 0
92.3715 -0.808239 0
92.5502 -0.679721 0
92.1702 -0.241053 0
90.9029 0.008721 0
92.6979 -0.457615 0
91.8244 0.191711 0
92.0507 0.296663 0
92.5685 -0.303906 0
92.3447 -0.0399139 0
93.0128 -0.0703486 0
91.0147 0.36886 0
92.9996 -0.173786 0
92.5409 0.403572 0
93.1858 0.468104 0
90.9374 0.10651 0
93.1298 1.17388 0
92.8966 1.40697 0
89.5086 0.197968 0
93.3578 0.861192 0
93.2489 1.34462 0
90.8819 1.47086 0
90.6477 0.701064 0
92.1903 1.1014 0
93.1396 1.88091 0
89.7639 0.32999 0
92.6339 2.77462 0
93.3164 2.11596 0
93.3279 2.34448 0
88.9722 1.41317 0
91.6469 2.90919 0
92.6818 3.1626 0
88.9594 0.231458 0
92.4933 3.66599 0
92.1399 3.55135 0
91.1521 5.1831 0
86.6216 0.397315 0
92.3 4.87594 0
90.2993 3.5188 0
88.4157 1.56468 0
88.0114 2.98568 0
92.0603 5.3844 0
90.9115 5.84023 0
87.0663 0.608563 0
90.9829 6.66683 0
87.6689 0.00102044 0
87.6735 -0.000154269 0
87.6803 0.0041247 0
87.6803 0.00327238 0
87.6874 -0.000450874 0
87.6951 0.00384243 0
87.6961 0.00649443 0
87.6978 0.00345093 0
87.7035 8.25987e-05 0
87.709 0.00662983 0
87.7086 0.0050099 0
87.7143 5.37203e-05 0
87.7218 0.00715162 0
87.7218 0.00882719 0
87.7227 0.00544172 0
87.728 0.000598964 0
87.7329 0.00892082 0
87.7323 0.00751868 0
87.7376 0.000952262 0
87.7455 0.0108864 0
87.7453 0.0115214 0
87.7544 0.0154475 0
87.7465 0.00633039 0
87.759 0.00908338 0
87.7685 0.014834 0
87.7599 0.0099561 0
87.7707 0.0155305 0
87.7764 0.0119489 0
87.7821 0.0186916 0
87.7736 0.00985145 0
87.7875 0.0131277 0
87.7946 0.0210392 0
87.7867 0.0102341 0
87.8055 0.0244392 0
87.8067 0.0238242 0
87.8104 0.0174343 0
87.8006 0.0121738 0
87.812 0.0185187 0
87.8235 0.0181714 0
87.8152 0.0116512 0
87.8346 0.0312634 0
87.8309 0.0124657 0
87.8404 0.0209337 0
87.83 0.0157869 0
87.8424 0.0263687 0
87.8604 0.030633 0
87.8623 0.0171527 0
87.8551 0.0277788 0
87.8724 0.0324083 0
87.873 0.0367436 0
87.8871 0.0190499 0
87.8808 0.0238785 0
87.8935 0.0336727 0
87.9052 0.046617 0
87.9046 0.0228918 0
87.9131 0.0369139 0
87.9205 0.0488329 0
87.9227 0.0276191 0
87.9103 0.0342858 0
87.9357 0.0533706 0
87.9356 0.0519363 0
87.9369 0.0329156 0
87.9447 0.0236711 0
87.9537 0.0478971 0
87.9115 0.014098 0
87.9688 0.0556221 0
87.9937 0.0666734 0
87.9781 0.0559659 0
87.9641 0.0332015 0
88.001 0.0670731 0
88.0059 0.0594969 0
88.0087 0.0289677 0
87.9886 0.0542912 0
88.02 0.0623555 0
88.0324 0.071142 0
87.9895 0.0168339 0
88.0198 0.0511634 0
88.0589 0.0827202 0
88.0252 0.0418496 0
88.0663 0.0731838 0
88.0872 0.0865141 0
88.0632 0.0632569 0
88.0708 0.0263704 0
88.092 0.0760434 0
88.1076 0.0882512 0
88.0786 0.0214946 0
88.125 0.0966131 0
88.0921 0.0703866 0
88.1373 0.0805356 0
88.1034 0.0559617 0
88.1489 0.103632 0
88.1922 0.124231 0
88.1439 0.0323817 0
88.1517 0.084662 0
88.2122 0.13125 0
88.1859 0.0944847 0
88.1369 0.0400062 0
88.2224 0.123655 0
88.2364 0.12892 0
88.1873 0.0320551 0
88.2246 0.0577354 0
88.2562 0.113455 0
88.2755 0.149105 0
88.2086 0.0786963 0
88.2969 0.144751 0
88.312 0.154433 0
88.2933 0.053685 0
88.2858 0.0956956 0
88.3473 0.171574 0
88.337 0.145581 0
88.2472 0.0469438 0
88.3577 0.163853 0
88.3952 0.176409 0
88.3572 0.0701366 0
88.3666 0.14982 0
88.4423 0.20843 0
88.4237 0.159739 0
88.3136 0.0508987 0
88.4593 0.196147 0
88.5107 0.235992 0
88.3982 0.0680735 0
88.4923 0.188344 0
88.4611 0.0885979 0
88.5234 0.19604 0
88.4461 0.110919 0
88.5572 0.250041 0
88.5988 0.250343 0
88.4998 0.0683568 0
88.5883 0.243448 0
88.6511 0.281002 0
88.5869 0.0729287 0
88.5602 0.204618 0
88.6337 0.23907 0
88.6872 0.284559 0
88.5679 0.0426885 0
88.6911 0.259346 0
88.7776 0.335252 0
88.7514 0.280756 0
88.68 0.0857748 0
88.8103 0.291937 0
88.6452 0.109373 0
88.6904 0.247649 0
88.8081 0.324245 0
88.8987 0.367611 0
88.904 0.375714 0
88.6558 0.00806711 0
88.9876 0.42694 0
88.9949 0.416409 0
89.0051 0.3663 0
88.9375 0.181443 0
89.0259 0.197981 0
89.0248 0.410675 0
88.815 0.112243 0
89.1284 0.464139 0
89.1165 0.453739 0
89.117 0.407688 0
89.0071 0.117936 0
89.1871 0.4549 0
89.2993 0.564989 0
89.1516 0.211824 0
89.1111 0.22639 0
89.2521 0.456282 0
89.4036 0.588769 0
89.0409 0.140785 0
89.4382 0.621167 0
89.4689 0.605875 0
89.2795 0.11948 0
89.5912 0.691213 0
89.6195 0.664734 0
89.6701 0.572766 0
89.4624 0.253616 0
89.4402 0.287403 0
89.5995 0.641704 0
89.3539 0.186422 0
89.7496 0.763914 0
89.7948 0.722963 0
89.7866 0.665778 0
89.5348 0.102007 0
89.9466 0.785814 0
89.9599 0.802668 0
89.807 0.452938 0
90.0383 0.632626 0
89.8175 0.367769 0
90.0068 0.77049 0
89.7157 0.234291 0
90.1511 0.897709 0
90.1713 0.869448 0
89.7436 0.184378 0
90.2305 0.800189 0
90.399 0.924307 0
90.3185 0.900999 0
90.1938 0.210966 0
90.5916 0.968448 0
90.6323 1.032 0
90.1649 0.625867 0
90.5225 0.76609 0
90.2127 0.381931 0
90.8116 1.08755 0
90.3599 0.118187 0
90.8692 1.05839 0
90.8605 1.0042 0
90.1948 0.0938666 0
90.7916 0.90836 0
91.1622 1.07664 0
91.2488 1.08675 0
90.7242 0.272545 0
91.3162 1.06189 0
91.3627 1.13133 0
90.7196 0.688217 0
91.3623 0.749412 0
90.8668 0.26558 0
91.5205 1.13123 0
90.884 0.0992671 0
91.6581 1.05808 0
91.7427 1.04367 0
90.7283 0.0687988 0
91.5646 0.86299 0
92.018 0.976812 0
92.1743 0.914949 0
91.1242 0.175066 0
92.0139 0.85648 0
92.3057 0.867642 0
91.6527 0.737015 0
92.0903 0.432483 0
91.1922 0.110501 0
92.0799 0.775905 0
91.1917 0.0406184 0
92.5437 0.764036 0
92.6265 0.6183 0
91.1022 0.0380405 0
92.3292 0.306271 0
92.7695 0.338196 0
92.9531 0.204507 0
91.1512 -0.096956 0
93.0392 0.00340423 0
93.0824 -0.133183 0
91.2881 -0.264267 0
93.0962 -0.16276 0
92.291 -0.622976 0
91.5852 -0.0869516 0
91.3998 0.00421905 0
93.2269 -0.452923 0
92.9823 -0.852906 0
93.4106 -1.0259 0
91.0401 -0.00495552 0
92.6841 -1.3065 0
93.404 -1.76268 0
90.9829 -0.122053 0
92.5187 -1.27517 0
93.3747 -2.3043 0
91.9483 -1.74688 0
90.9432 -0.653822 0
93.1785 -2.65594 0
93.0369 -2.95118 0
91.9214 -1.09968 0
91.3327 -3.12898 0
89.2797 -2.59092 0
92.673 -2.99331 0
89.7209 -0.403431 0
92.6525 -3.94564 0
90.045 7.27251 0
90.7862 6.49504 0
85.325 1.92461 0
89.9373 7.231 0
87.6784 6.62388 0
89.2719 7.86673 0
85.9296 0.754996 0
88.2818 8.07371 0
87.0963 7.95029 0
84.6514 0.962405 0
87.1725 8.47647 0
92.5587 -4.36771 0
89.9712 -0.251099 0
92.2883 -4.71509 0
91.0361 -5.12195 0
90.482 -4.40861 0
89.0544 -0.267287 0
91.278 -5.71105 0
85.8515 7.74835 0
90.6165 -6.9946 0
88.7923 -1.39588 0
90.2899 -6.76144 0
89.4161 -7.73092 0
83.4736 2.36752 0
88.9746 -7.58876 0
90.2117 -4.2229 0
89.4706 -6.87271 0
87.5911 -5.08973 0
86.6489 -0.836263 0
88.5226 -6.98413 0
87.7194 -7.3977 0
85.2227 8.17657 0
87.7934 -7.40826 0
87.498 -0.453078 0
86.7501 -7.76594 0
86.2337 -8.47294 0
85.9535 -0.562586 0
85.1316 -8.62092 0
85.6407 -6.32462 0
83.7376 -0.651865 0
84.1097 -8.77472 0
84.1649 -4.867 0
85.9105 -3.82785 0
84.6531 -7.51087 0
83.5309 -7.86557 0
86.2286 4.38933 0
82.5425 0.528749 0
85.6282 2.936 0
84.2567 -0.0728943 0
82.9845 -8.5329 0
84.8408 7.74496 0
82.2634 0.384734 0
84.2566 6.59128 0
82.1099 -8.39809 0
83.818 -1.71691 0
81.3768 -6.1321 0
84.2621 8.82936 0
81.1227 2.02778 0
84.1593 8.75503 0
81.9006 7.30557 0
81.4138 0.413925 0
82.5494 7.67897 0
81.9947 -6.37778 0
83.3167 -0.475008 0
81.2477 -8.52698 0
81.2632 -8.29467 0
82.9284 8.24726 0
80.9801 7.86518 0
80.7023 0.0403792 0
82.0555 8.11834 0
80.1457 5.08912 0
80.71 2.2914 0
80.3164 -8.47625 0
81.19 -1.10082 0
80.6519 -8.35144 0
79.8521 8.31889 0
79.6807 -7.74492 0
80.2948 -1.07919 0
79.9306 -3.40332 0
78.4086 -7.44146 0
81.4361 -4.11293 0
78.2646 -7.19623 0
79.7712 -0.289564 0
77.3437 -6.87631 0
79.4524 2.86824 0
80.0551 0.461492 0
79.41 6.98475 0
79.4141 0.115597 0
79.2151 8.19591 0
78.9199 7.69337 0
79.0824 0.184668 0
78.1436 6.73337 0
78.8458 0.133365 0
78.7262 -6.4325 0
79.7702 -0.575743 0
79.9571 6.05393 0
77.9542 0.73949 0
77.6933 6.32347 0
77.2249 -6.83748 0
79.8841 -0.231411 0
75.585 -5.84576 0
77.9166 -0.441779 0
76.4022 -5.75319 0
78.6996 2.55274 0
77.8605 0.120248 0
79.4395 -5.23635 0
77.8633 -0.113232 0
75.7005 -5.41664 0
77.0906 5.70568 0
77.0877 -4.27641 0
77.8917 -0.245194 0
75.9927 -4.63893 0
78.0697 3.14698 0
75.9118 1.99888 0
76.5794 4.93206 0
77.7098 -0.987297 0
75.8455 -5.14235 0
77.8445 0.402847 0
76.5211 6.65603 0
77.8152 -2.3821 0
77.8617 -0.084724 0
75.5063 -4.6373 0
76.2428 5.94748 0
77.8826 0.718191 0
76.1729 4.64793 0
75.9011 4.58834 0
77.8396 0.380625 0
75.0971 4.08452 0
74.6545 -4.16747 0
77.8637 -0.296358 0
74.3523 -4.15913 0
76.6804 -1.98358 0
77.8692 -0.20236 0
73.721 -2.8345 0
75.1672 5.08268 0
77.8131 0.623008 0
76.3767 3.25559 0
74.3242 -2.57523 0
77.7898 -0.311557 0
73.6815 -2.34565 0
74.0463 3.74022 0
77.8012 0.266872 0
74.4417 3.52294 0
74.7348 2.87466 0
77.8614 0.0357097 0
73.9077 3.06167 0
75.0035 -1.5155 0
77.752 -0.543033 0
74.3027 -1.33509 0
73.1386 -0.850892 0
77.1372 -0.927268 0
73.1877 -0.720479 0
76.8528 0.960977 0
77.8173 0.076638 0
75.989 2.44101 0
73.6858 2.46591 0
77.7071 0.0595983 0
73.2619 1.5574 0
77.4561 -0.236716 0
77.8512 -0.111719 0
73.1858 -0.237146 0
73.7049 -0.0931971 0
77.8352 -0.0662232 0
75.8876 0.308618 0
73.8704 0.52818 0
77.8421 -0.0623907 0
77.3009 -5.66775 0
77.9531 -0.433537 0
77.8542 0.132102 0
78.1621 6.8959 0
79.1191 -7.75081 0
82.1694 -0.946953 0
80.5328 0.997656 0
81.8221 8.62576 0
77.8194 0.279817 0
74.6155 4.86343 0
74.0795 -2.84308 0
77.82 -0.200367 0
77.9083 -0.572905 0
77.6569 -3.67724 0
77.9861 0.802339 0
77.919 0.201424 0
77.8304 -0.000832689 0
73.753 2.05685 0
79.3739 0.466977 0
78.4504 1.5787 0
78.782 -1.37456 0
80.3409 -0.692163 0
86.0427 -1.26652 0
85.6134 -8.46446 0
87.527 8.07244 0
85.568 0.468008 0
77.809 1.667 0
79.7663 8.01305 0
78.673 -7.09546 0
79.3382 -2.318 0
76.9608 -1.46121 0
74.6916 -0.223558 0
76.2762 5.84155 0
78.1331 1.89569 0
77.9686 -1.79169 0
74.8809 -4.64264 0
92.0311 -5.35718 0
88.7296 -0.658753 0
88.2952 0.78761 0
92.4847 4.44964 0
77.9815 -0.815831 0
77.8915 -0.0454813 0
77.8846 0.148238 0
79.009 0.758833 0
83.2585 0.734424 0
82.8884 4.10754 0
81.3144 -1.99146 0
84.4787 -1.74559 0
81.7922 4.90343 0
84.7779 8.30967 0
83.5963 -8.69244 0
82.6877 -1.9207 0
86.8278 1.6087 0
87.9208 5.01983 0
86.4652 -2.78765 0
87.6451 -0.0410896 0
90.9229 -0.247107 0
93.3688 -1.27533 0
93.2181 0.478236 0
90.0873 0.0273288 0
91.1553 0.00435592 0
92.667 0.601101 0
92.4496 -0.58143 0
91.2789 0.0318846 0
79.0829 -1.44999 0
78.4978 -0.574842 0
78.4201 1.23879 0
79.2528 0.953187 0
78.2519 1.22865 0
77.8908 0.242311 0
77.8602 -0.106277 0
78.1702 -1.12976 0
89.7584 0.947894 0
91.0046 1.86664 0
90.0883 -1.13704 0
90.3134 -0.16852 0
76.0177 -0.960442 0
77.8547 -0.15597 0
77.4945 -0.439747 0
77.8747 -0.376684 0
77.858 0.204447 0
77.9046 0.96788 0
91.8102 0.991344 0
91.0092 0.155875 0
91.1193 -0.00579399 0
91.559 -1.06468 0
81.7865 -0.0392823 0
81.0126 -2.83026 0
82.0984 1.807 0
80.7643 0.448405 0
77.9102 4.05464 0
77.4472 7.33158 0
77.1808 -6.27475 0
78.3646 -3.23529 0
78.8495 -2.11593 0
77.5862 -2.23334 0
78.011 4.64717 0
78.2753 2.22847 0
91.2808 0.0436643 0
90.9934 0.140515 0
91.1929 -0.0467536 0
92.1715 0.115169 0
79.8699 -5.43298 0
80.9644 -5.2683 0
80.5372 4.64805 0
81.1123 8.54635 0
79.1812 -3.98782 0
80.3543 -2.31705 0
80.1909 3.12215 0
79.3213 1.54013 0
91.1022 1.14013 0
90.5648 0.142303 0
90.772 -0.0122875 0
90.716 -1.02141 0
77.3429 1.0172 0
77.8482 0.0288038 0
91.183 -0.0590974 0
91.8217 -0.363737 0
91.5391 0.253857 0
91.0374 0.038836 0
78.876 -0.958483 0
78.3915 -1.33513 0
79.1995 1.74641 0
78.2585 0.735876 0
77.8972 -0.14725 0
78.1706 -0.700697 0
77.9784 0.315533 0
77.8713 0.136322 0
74.1822 1.71575 0
76.9994 1.52664 0
87.2325 -3.14953 0
90.6086 -6.33984 0
91.5815 5.78399 0
86.9421 2.27146 0
76.8614 -2.31877 0
74.8161 -2.90527 0
89.9676 0.154079 0
90.2268 0.866966 0
89.3499 0.0737488 0
89.917 0.821374 0
90.2457 -0.844658 0
90.0811 -0.140045 0
89.7082 -0.687442 0
89.6125 -0.0146316 0
90.9256 -0.21523 0
91.0516 -0.61872 0
90.9005 0.389385 0
90.6718 0.00847776 0
77.861 0.178851 0
77.7 0.540694 0
76.4963 0.452079 0
74.2734 0.84689 0
77.8034 -0.251238 0
77.8441 -0.169387 0
77.4044 0.274377 0
77.3402 -0.753021 0
93.1781 -2.70754 0
90.0047 -1.74054 0
90.9934 2.20605 0
93.3498 1.57226 0
78.0413 -0.0630351 0
78.1495 -0.364933 0
77.8984 0.0537557 0
78.3348 0.261536 0
90.3965 -0.204067 0
90.4255 -0.52662 0
90.4389 0.352382 0
90.086 0.114108 0
89.199 0.164415 0
89.3699 0.513926 0
89.4008 -0.600335 0
89.2792 -0.145501 0
78.513 -0.899993 0
79.4602 -2.13913 0
78.8881 1.61476 0
78.4973 1.27393 0
79.2338 2.88525 0
77.6275 1.85411 0
78.1686 -1.92568 0
78.853 -2.7983 0
91.6117 -0.523991 0
92.5848 0.322215 0
92.7544 -0.317932 0
92.0336 0.557864 0
77.7208 -1.15173 0
77.8423 -1.36804 0
77.8604 1.08524 0
77.3765 1.30973 0
89.2325 0.532995 0
88.9631 0.159588 0
89.0155 -0.100328 0
89.1823 -0.455518 0
85.3094 4.26825 0
87.3372 7.12709 0
86.8274 -8.3973 0
86.3703 -3.34326 0
75.296 -3.4297 0
77.6168 -3.51867 0
84.9278 -3.06321 0
85.5828 -1.09793 0
83.9113 0.45454 0
87.2817 3.10365 0
74.8978 4.63147 0
76.777 2.73639 0
89.821 -0.0515414 0
89.9943 -0.535291 0
89.8773 0.352258 0
89.7921 0.0947429 0
89.1805 -0.368687 0
88.9467 -1.51009 0
89.5049 2.08024 0
88.5174 0.271398 0
83.2687 1.39791 0
81.4964 0.350844 0
82.6373 -0.337594 0
83.3129 -3.11191 0
91.5044 0.326181 0
91.792 0.862097 0
91.9463 -0.93817 0
91.8082 -0.0658188 0
82.2915 -3.83359 0
83.3988 -1.83763 0
82.6057 2.71318 0
85.1945 5.9883 0
88.8799 0.326125 0
88.7578 0.0619393 0
88.9079 -0.0978221 0
88.8794 -0.339224 0
89.3729 -0.180794 0
89.5104 -0.00970504 0
89.4876 0.100808 0
89.3535 0.424654 0
80 0.498587 0
79.7537 1.30594 0
80.0193 -1.14773 0
80.8786 -0.320035 0
81.5662 2.82966 0
79.921 1.95124 0
79.3031 -2.83795 0
78.4582 -2.8667 0
90.9559 -0.475913 0
90.7007 -0.27586 0
90.5127 0.372177 0
91.4679 0.614783 0
79.9268 3.85028 0
80.4315 2.57425 0
79.3612 -0.825796 0
79.1849 -0.294294 0
79.0189 0.266181 0
79.7598 0.889208 0
76.6188 -0.875994 0
77.5749 -1.35021 0
92.5326 -3.61992 0
90.0504 -2.05784 0
89.4893 3.74053 0
92.925 3.68012 0
77.9208 -0.865881 0
77.8882 -0.143733 0
77.8301 0.198136 0
77.9937 0.848237 0
78.2617 0.0872381 0
78.2885 0.626844 0
78.4438 -0.343235 0
78.596 -0.0198513 0
75.4961 -0.269316 0
73.2014 0.151664 0
85.3168 3.22275 0
89.4509 2.96672 0
88.1263 -2.51104 0
88.7245 -4.96617 0
77.6385 2.06991 0
77.1914 1.1559 0
77.8598 -0.0254721 0
77.6843 -0.051082 0
80.5101 6.84192 0
78.3761 4.06333 0
80.1324 -4.30246 0
79.1733 -8.11535 0
77.4127 0.785199 0
77.7908 0.424383 0
90.9363 0.517893 0
91.2751 1.12657 0
90.9949 -1.02399 0
90.9082 -0.202814 0
89.0262 -0.117801 0
89.204 -0.0799284 0
89.1807 0.0686569 0
89.1086 0.394554 0
93.1203 0.400103 0
91.9509 1.36078 0
92.028 -0.537205 0
93.247 -0.654763 0
77.5095 0.106943 0
76.9138 -1.75498 0
78.1569 1.42059 0