# vtk DataFile Version 3.0
Unstructured Grid for Triangles
ASCII
DATASET UNSTRUCTURED_GRID
POINTS 29612 DOUBLE
-2.72397e-05 1.23686e-06 0
-2.95789e-05 9.5838e-07 0
-2.77865e-05 -3.1235e-07 0
0.0002024 5e-05 0
0.000203975 4.9875e-05 0
0.000205 5e-05 0
0.000203975 -4.9875e-05 0
0.0002024 -5e-05 0
0.000205 -5e-05 0
0.00020295 4.975e-05 0
0.00020295 -4.975e-05 0
0.000201925 4.9625e-05 0
0.000201925 -4.9625e-05 0
-5.29747e-05 -4.79887e-05 0
-5.5e-05 -5e-05 0
-5.24e-05 -5e-05 0
-5.05983e-05 -4.84325e-05 0
-4.98e-05 -5e-05 0
-4.72e-05 -5e-05 0
-4.83864e-05 -4.87761e-05 0
-4.46e-05 -5e-05 0
-4.59e-05 -4.84239e-05 0
-4.29453e-05 -4.24878e-05 0
-4.47486e-05 -4.20717e-05 0
-4.41829e-05 -4.36609e-05 0
-5.12578e-05 -4.62101e-05 0
-4.93077e-05 -4.53594e-05 0
-5.0706e-05 -4.39006e-05 0
-4.19243e-05 -4.77545e-05 0
-4.40307e-05 -4.71837e-05 0
-4.3691e-05 -4.86724e-05 0
-5.16129e-05 -4.20948e-05 0
-4.95355e-05 -4.15432e-05 0
-5.11646e-05 -4.0128e-05 0
-3.94697e-05 -4.81197e-05 0
-4.06302e-05 -4.55143e-05 0
-5.37257e-05 -3.88197e-05 0
-5.31099e-05 -4.07297e-05 0
-5.23982e-05 -3.88328e-05 0
-3.70063e-05 -4.72956e-05 0
-3.68e-05 -5e-05 0
-3.5308e-05 -4.85302e-05 0
-5.072e-05 -3.7867e-05 0
-4.85506e-05 -3.83975e-05 0
-4.90949e-05 -3.59622e-05 0
-3.37127e-05 -4.84331e-05 0
-3.16e-05 -5e-05 0
-3.26495e-05 -4.7415e-05 0
-5.5e-05 -3.5e-05 0
-5.31201e-05 -3.70361e-05 0
-5.28367e-05 -3.46817e-05 0
-3.63898e-05 -4.48809e-05 0
-3.83315e-05 -4.60336e-05 0
-3.26269e-06 -4.15503e-05 0
-5.99662e-06 -4.09556e-05 0
-5.46944e-06 -4.29488e-05 0
-5.29747e-05 4.79887e-05 0
-5.5e-05 5e-05 0
-5.5e-05 4.75e-05 0
-5.5e-05 4.5e-05 0
-5.34834e-05 4.29171e-05 0
-5.26943e-05 4.42611e-05 0
-5.34026e-05 4.60176e-05 0
-5.31099e-05 4.07297e-05 0
-5.11672e-05 4.01178e-05 0
-5.16129e-05 4.20948e-05 0
-5.24e-05 5e-05 0
-5.05983e-05 4.84325e-05 0
-5.31201e-05 3.70361e-05 0
-5.072e-05 3.7867e-05 0
-5.23982e-05 3.88328e-05 0
-4.8341e-05 4.69132e-05 0
-4.83679e-05 4.87539e-05 0
-5.28367e-05 3.46817e-05 0
-5.5e-05 3.25e-05 0
-5.25657e-05 3.28474e-05 0
-4.98e-05 5e-05 0
-5.30382e-05 3.125e-05 0
-4.19243e-05 4.77545e-05 0
-4.40015e-05 4.7335e-05 0
-4.25917e-05 4.63678e-05 0
-4.35138e-05 2.62661e-05 0
-4.14982e-05 2.74462e-05 0
-4.35654e-05 2.85217e-05 0
-4.59e-05 4.84239e-05 0
-4.36852e-05 4.87027e-05 0
-4.46e-05 5e-05 0
-5.33308e-05 2.92503e-05 0
-5.5e-05 2.75e-05 0
-5.23377e-05 2.76953e-05 0
-4.25282e-05 4.46352e-05 0
-4.09368e-05 4.35728e-05 0
-4.06302e-05 4.55143e-05 0
0.0002009 4.95e-05 0
0.0001998 5e-05 0
0.000199875 4.9375e-05 0
0.00019885 4.925e-05 0
0.0001972 5e-05 0
0.000197825 4.9125e-05 0
0.0001968 4.9e-05 0
0.000195775 4.8875e-05 0
0.0001946 5e-05 0
0.00019475 4.875e-05 0
0.000193725 4.8625e-05 0
0.000192 5e-05 0
0.0001927 4.85e-05 0
0.000191675 4.8375e-05 0
0.00019065 4.825e-05 0
0.0001894 5e-05 0
0.000189625 4.8125e-05 0
0.0001886 4.8e-05 0
0.0001868 5e-05 0
0.000187575 4.7875e-05 0
0.00018655 4.775e-05 0
0.000185515 4.8575e-05 0
0.0001842 5e-05 0
0.0001845 4.75e-05 0
0.000185525 4.7625e-05 0
0.000182564 4.829e-05 0
0.0001816 5e-05 0
0.00018245 4.725e-05 0
0.000183475 4.7375e-05 0
0.000181425 4.7125e-05 0
0.000180295 4.82657e-05 0
0.000179 5e-05 0
0.000179375 4.6875e-05 0
0.0001804 4.7e-05 0
0.000178168 4.80619e-05 0
0.0001764 5e-05 0
0.000177325 4.6625e-05 0
0.00017835 4.675e-05 0
0.000176428 4.76631e-05 0
0.0001763 4.65e-05 0
0.0001738 5e-05 0
0.0001751 4.84164e-05 0
0.000175275 4.6375e-05 0
0.000174025 4.75632e-05 0
0.0001712 5e-05 0
0.000172615 4.78449e-05 0
0.0001722 4.6e-05 0
0.000173225 4.6125e-05 0
0.00017015 4.575e-05 0
0.000171243 4.7381e-05 0
0.000169554 4.79999e-05 0
0.0001686 5e-05 0
0.000167507 4.79751e-05 0
0.000168498 4.64861e-05 0
0.000166 5e-05 0
0.00016558 4.71459e-05 0
0.000167135 4.62887e-05 0
0.0001681 4.55e-05 0
0.00016605 4.525e-05 0
0.000167075 4.5375e-05 0
0.000164059 4.61599e-05 0
0.00016394 4.79552e-05 0
0.000162881 4.6615e-05 0
0.000162975 4.4875e-05 0
0.000165025 4.5125e-05 0
0.000164 4.5e-05 0
0.000161754 4.58641e-05 0
0.000161722 4.78101e-05 0
0.000159956 4.58294e-05 0
0.000160925 4.4625e-05 0
0.00016195 4.475e-05 0
0.000157667 4.60322e-05 0
0.000158875 4.4375e-05 0
0.000159194 4.80155e-05 0
0.0001599 4.45e-05 0
0.00015785 4.425e-05 0
0.000155808 4.56757e-05 0
0.000155647 4.76701e-05 0
0.000154059 4.66642e-05 0
0.000153756 4.50083e-05 0
0.000154839 4.50446e-05 0
0.000156825 4.4125e-05 0
0.000151954 4.80508e-05 0
0.000154052 4.8477e-05 0
0.000153 5e-05 0
0.000154775 4.3875e-05 0
0.000152142 4.56625e-05 0
0.000152821 4.45753e-05 0
0.00015375 4.375e-05 0
0.0001504 5e-05 0
0.000149644 4.85168e-05 0
0.000151787 4.43178e-05 0
0.000152725 4.3625e-05 0
0.000150675 4.3375e-05 0
0.0001517 4.35e-05 0
0.000148119 4.50887e-05 0
0.000148072 4.75757e-05 0
0.000146584 4.63516e-05 0
0.000150008 4.6396e-05 0
0.000149351 4.4543e-05 0
0.00015061 4.46252e-05 0
0.0001476 4.3e-05 0
0.000148625 4.3125e-05 0
0.000146492 4.82975e-05 0
0.000144888 4.73562e-05 0
0.000146676 4.44259e-05 0
0.000145255 4.53656e-05 0
0.000145652 4.38669e-05 0
0.000141401 4.79821e-05 0
0.0001426 5e-05 0
0.00014 5e-05 0
0.000144374 4.38862e-05 0
0.00014555 4.275e-05 0
0.0001435 4.25e-05 0
0.000144525 4.2625e-05 0
0.000142746 4.38121e-05 0
0.000141288 4.43191e-05 0
0.000141707 4.32778e-05 0
0.00013921 4.38992e-05 0
0.000140355 4.5932e-05 0
0.000138302 4.5922e-05 0
0.000142912 4.58869e-05 0
0.000140592 4.30037e-05 0
0.00014145 4.225e-05 0
0.000136458 4.5869e-05 0
0.000137106 4.4063e-05 0
0.0001394 4.2e-05 0
0.000138259 4.28915e-05 0
0.000137484 4.77094e-05 0
0.000139166 4.78902e-05 0
0.00013586 4.78984e-05 0
0.000133449 4.78649e-05 0
0.000134717 4.61848e-05 0
0.000137256 4.25134e-05 0
0.000135323 4.24541e-05 0
0.000136325 4.1625e-05 0
0.000136122 4.2876e-05 0
0.000131206 4.47284e-05 0
0.000133168 4.56738e-05 0
0.000131773 4.65243e-05 0
0.000134756 4.40343e-05 0
0.000132747 4.36463e-05 0
0.000133483 4.26786e-05 0
0.000131081 4.1867e-05 0
0.000132382 4.22815e-05 0
0.000131507 4.3122e-05 0
0.000131059 4.80123e-05 0
0.00013325 4.125e-05 0
0.00012915 4.075e-05 0
0.00012982 4.18199e-05 0
0.000128915 4.26216e-05 0
0.000126366 4.47574e-05 0
0.000127331 4.30908e-05 0
0.000128781 4.44872e-05 0
0.000125336 4.28376e-05 0
0.000130218 4.31077e-05 0
0.000127894 4.16344e-05 0
0.000124774 4.69608e-05 0
0.000127668 4.64148e-05 0
0.000126591 4.8331e-05 0
0.000126722 4.18415e-05 0
0.000125768 4.11931e-05 0
0.000124326 4.13546e-05 0
0.00012505 4.025e-05 0
0.000122408 4.50118e-05 0
0.000120276 4.47432e-05 0
0.00012139 4.32235e-05 0
0.000124336 4.44132e-05 0
0.000123056 4.27595e-05 0
0.000122977 4.09049e-05 0
0.00012185 4.69217e-05 0
0.000122676 4.85947e-05 0
0.000120525 4.86094e-05 0
0.000121479 4.13153e-05 0
0.000119547 4.24221e-05 0
0.000120249 4.07448e-05 0
0.000119925 3.9625e-05 0
0.000119346 4.06114e-05 0
0.000117479 4.47279e-05 0
0.000114726 4.45259e-05 0
0.00011571 4.27814e-05 0
0.000119443 4.66611e-05 0
0.000117447 4.21596e-05 0
0.000118421 4.0752e-05 0
0.000117409 4.04437e-05 0
0.000116775 4.70073e-05 0
0.0001179 4.855e-05 0
0.000115473 4.84802e-05 0
0.00011685 3.925e-05 0
0.000117875 3.9375e-05 0
0.000115454 4.00551e-05 0
0.0001148 3.9e-05 0
0.000115825 3.9125e-05 0
0.000111704 4.23398e-05 0
0.000113786 4.26731e-05 0
0.000112589 4.43871e-05 0
0.000113234 4.06671e-05 0
0.000114754 4.13371e-05 0
0.0001106 4.42326e-05 0
0.000109703 4.24261e-05 0
0.00011275 3.875e-05 0
0.000113775 3.8875e-05 0
0.000110211 4.80875e-05 0
0.000108244 4.71951e-05 0
0.000109312 4.58413e-05 0
0.000111755 3.99116e-05 0
0.00010944 3.92972e-05 0
0.000110415 4.05876e-05 0
0.000108839 4.07536e-05 0
0.000106472 4.76905e-05 0
0.000107274 4.57868e-05 0
0.000108011 3.92415e-05 0
0.000106885 4.04365e-05 0
0.000106625 3.88708e-05 0
0.000105286 4.19254e-05 0
0.000105055 3.95469e-05 0
0.000104215 4.39764e-05 0
0.000106346 4.40629e-05 0
0.000100945 4.51249e-05 0
0.000102825 4.5614e-05 0
0.000101189 4.68452e-05 0
0.000107625 3.8125e-05 0
0.000105575 3.7875e-05 0
0.0001066 3.8e-05 0
0.000103352 4.76905e-05 0
0.000101803 4.8465e-05 0
0.000103685 3.89398e-05 0
0.00010245 3.8825e-05 0
0.000103525 3.7625e-05 0
0.000101092 3.99779e-05 0
0.000101267 3.82619e-05 0
0.000101382 4.2025e-05 0
0.000103187 4.05286e-05 0
0.000103359 4.24605e-05 0
9.87383e-05 4.5447e-05 0
9.99411e-05 4.35161e-05 0
9.744e-05 4.33145e-05 0
0.00010045 3.725e-05 0
0.000101475 3.7375e-05 0
9.70845e-05 4.65215e-05 0
9.52614e-05 4.67664e-05 0
9.61768e-05 4.49944e-05 0
9.9729e-05 3.87704e-05 0
9.78901e-05 3.9598e-05 0
9.85823e-05 3.81492e-05 0
9.62289e-05 3.93709e-05 0
9.74259e-05 3.81279e-05 0
9.7375e-05 3.6875e-05 0
9.63045e-05 3.76631e-05 0
9.58e-05 5e-05 0
9.32e-05 5e-05 0
9.47542e-05 4.8457e-05 0
9.49675e-05 3.85246e-05 0
9.36214e-05 3.89472e-05 0
9.40006e-05 3.74906e-05 0
9.66411e-05 4.12573e-05 0
9.44241e-05 4.07079e-05 0
9.03569e-05 4.24993e-05 0
9.21701e-05 4.02409e-05 0
9.27439e-05 4.27744e-05 0
8.89795e-05 4.09067e-05 0
9.03071e-05 4.0248e-05 0
9.25447e-05 3.77721e-05 0
9.3275e-05 3.6375e-05 0
9.07708e-05 3.87127e-05 0
9.11303e-05 3.70839e-05 0
9.11933e-05 4.55145e-05 0
9.30678e-05 4.73279e-05 0
9.11886e-05 4.82603e-05 0
8.87724e-05 3.88076e-05 0
8.99595e-05 3.75116e-05 0
9.02e-05 3.6e-05 0
8.89241e-05 3.6954e-05 0
8.36977e-05 4.59472e-05 0
8.36223e-05 4.83578e-05 0
8.20467e-05 4.74142e-05 0
8.71227e-05 4.03557e-05 0
8.61e-05 3.55e-05 0
8.68368e-05 3.65714e-05 0
8.5484e-05 3.6588e-05 0
8.47735e-05 4.02845e-05 0
8.23121e-05 4.21599e-05 0
8.26582e-05 3.98147e-05 0
8.46943e-05 4.2454e-05 0
8.38832e-05 3.78613e-05 0
8.35569e-05 3.63808e-05 0
8.44098e-05 3.6291e-05 0
8.5075e-05 3.5375e-05 0
8.51465e-05 4.77163e-05 0
8.3025e-05 3.5125e-05 0
8.22824e-05 3.68659e-05 0
8.1446e-05 3.57362e-05 0
8.05884e-05 3.71794e-05 0
7.53471e-05 4.77524e-05 0
7.38313e-05 4.73927e-05 0
7.39102e-05 4.61526e-05 0
7.9826e-05 3.58588e-05 0
7.88607e-05 3.76287e-05 0
7.81733e-05 3.57987e-05 0
8.16783e-05 3.84471e-05 0
8.07975e-05 4.04095e-05 0
7.52138e-05 4.04775e-05 0
7.67682e-05 4.17043e-05 0
7.49617e-05 4.21803e-05 0
7.52903e-05 3.84008e-05 0
7.38293e-05 3.93136e-05 0
[...]
CELL_DATA 58684
VECTORS velocity DOUBLE
74.3194 0.337152 0
87.3911 0.000112465 0
87.3645 -3.23898e-05 0
87.3966 -0.00150884 0
87.3691 0.0014015 0
87.4018 -0.00277002 0
87.375 0.00318423 0
77.8863 -0.00111977 0
77.9043 -0.0247619 0
78.0252 -0.00225068 0
78.1476 -0.00455542 0
78.216 -0.409978 0
77.9446 -0.10969 0
78.2998 -0.135198 0
77.9215 -0.184755 0
78.508 -0.169986 0
77.8872 -0.112916 0
78.8831 -0.157629 0
77.9786 -0.317849 0
79.4069 -0.110931 0
77.8992 -0.116231 0
78.8504 -0.370338 0
85.5527 -2.1714 0
77.8646 0.0125174 0
77.8708 0.0514832 0
77.8639 0.024959 0
77.9154 0.142612 0
77.904 0.0236195 0
77.9081 0.188532 0
78.0217 0.0490339 0
77.8966 0.145477 0
77.9727 0.0335193 0
77.8602 0.143806 0
78.3749 0.162561 0
78.0816 1.13454 0
78.2203 0.068851 0
77.9079 0.179951 0
78.4572 0.354637 0
87.4078 0.000373107 0
87.4132 6.0905e-05 0
87.4217 -0.00576106 0
87.4227 -0.00268286 0
87.4329 0.000197718 0
87.4413 -0.00488444 0
87.4431 -0.00733637 0
87.4458 -0.00332316 0
87.4541 -8.62305e-05 0
87.4603 -0.00741127 0
87.4606 -0.005266 0
87.4697 -0.000487343 0
87.4778 -0.00818826 0
87.4787 -0.0091738 0
87.4806 -0.00486287 0
87.4883 -0.000708939 0
87.4938 -0.00945559 0
87.4937 -0.0074 0
87.5021 -0.00150263 0
87.5104 -0.0118087 0
87.5109 -0.011811 0
87.5129 -0.0061225 0
87.5225 -0.000514709 0
87.5244 -0.0147674 0
87.5311 -0.0096212 0
87.5415 -0.00119398 0
87.5425 -0.0174901 0
87.544 -0.01468 0
87.5515 -0.0120233 0
87.5578 -0.0013593 0
87.5584 -0.0174644 0
87.5659 -0.0129123 0
87.5736 -0.00196753 0
87.5742 -0.0197774 0
87.58 -0.0148242 0
87.5867 -0.0237101 0
87.5937 -0.00114193 0
87.5963 -0.017954 0
87.6009 -0.011411 0
87.6115 -0.00228718 0
87.6136 -0.0249834 0
87.632 -0.020523 0
87.6171 -0.0202469 0
87.6328 -0.00191854 0
87.6396 -0.0129266 0
87.6349 -0.0254375 0
87.6599 -0.0159688 0
87.6557 -0.0214682 0
87.6544 -0.0293739 0
87.6646 -0.0353486 0
87.6817 -0.0227093 0
87.6953 -0.0322603 0
87.6747 -0.0276432 0
87.6895 -0.0394105 0
87.7037 -0.0300455 0
87.7007 -0.0300761 0
87.7092 -0.0416717 0
87.7366 -0.0390696 0
87.7196 -0.0328415 0
87.7283 -0.0441309 0
87.7442 -0.0506701 0
87.7471 -0.0377267 0
87.7689 -0.0459252 0
87.751 -0.041096 0
87.7696 -0.0134476 0
87.7746 -0.0514364 0
87.791 -0.0486934 0
87.7841 -0.0527671 0
87.7889 -0.0142902 0
87.7974 -0.0563592 0
87.8119 -0.0621084 0
87.8226 -0.0354324 0
87.8206 -0.037862 0
87.8089 -0.0511571 0
87.8396 -0.0664757 0
87.8342 -0.0272687 0
87.8637 -0.0608335 0
87.8499 -0.0393672 0
87.8756 -0.00375182 0
87.8738 -0.0692841 0
87.8866 -0.0782626 0
87.9124 -0.0697622 0
87.9252 -0.052921 0
87.885 -0.04127 0
87.9206 -0.0795002 0
87.9457 -0.0538101 0
87.9457 -0.0831944 0
87.918 -0.0300036 0
87.9562 -0.0756844 0
87.9599 -0.0292484 0
87.9675 -0.0868704 0
87.9908 -0.0993163 0
88.0116 -0.0591046 0
88.0106 -0.0831582 0
87.9809 -0.0390968 0
88.0448 -0.106807 0
87.9906 -0.0314201 0
88.0283 -0.106534 0
88.0828 -0.119692 0
88.0883 -0.084622 0
88.1017 -0.102059 0
88.0694 -0.0999145 0
88.0944 -0.10998 0
88.0553 -0.0464801 0
88.131 -0.126012 0
88.1537 -0.138879 0
88.1712 -0.090814 0
88.104 -0.067184 0
88.1466 -0.118924 0
88.1645 -0.139382 0
88.1196 -0.0283432 0
88.2213 -0.150324 0
88.2334 -0.165529 0
88.2577 -0.102505 0
88.1834 -0.0875618 0
88.2418 -0.139421 0
88.2605 -0.165789 0
88.1966 -0.0303755 0
88.2778 -0.190984 0
88.3191 -0.204446 0
88.3213 -0.143989 0
88.3236 -0.166997 0
88.3602 -0.152824 0
88.3526 -0.211943 0
88.3345 -0.0561859 0
88.3596 -0.199882 0
88.4199 -0.204729 0
88.382 -0.067022 0
88.4757 -0.242028 0
88.4956 -0.22383 0
88.4728 -0.143276 0
88.5186 -0.109592 0
88.4805 -0.248326 0
88.5132 -0.272734 0
88.4924 -0.0558044 0
88.5714 -0.27801 0
88.6119 -0.284981 0
88.5394 -0.204652 0
88.5869 -0.130798 0
88.6189 -0.169132 0
88.6414 -0.325057 0
88.6547 -0.11177 0
88.6935 -0.305075 0
88.7191 -0.299723 0
88.742 -0.34953 0
88.6792 -0.00602693 0
88.8269 -0.349123 0
88.7236 -0.270141 0
88.823 -0.245445 0
88.8827 -0.28647 0
88.8714 -0.387878 0
88.9178 -0.391673 0
88.782 -0.088709 0
88.9486 -0.381479 0
88.9744 -0.438844 0
88.985 -0.42221 0
89.0442 -0.098623 0
88.965 -0.335881 0
89.1211 -0.487349 0
89.1539 -0.369736 0
89.0827 -0.311997 0
89.1706 -0.514603 0
89.1589 -0.508416 0
89.0365 -0.0886599 0
89.2477 -0.565594 0
89.2799 -0.532283 0
89.4172 -0.104859 0
89.3657 -0.58414 0
89.2261 -0.409535 0
89.4439 -0.374952 0
89.5029 -0.483226 0
89.4115 -0.53037 0
89.4371 -0.634758 0
89.4689 -0.229694 0
89.5886 -0.615034 0
89.5511 -0.705819 0
89.7194 -0.719296 0
89.658 -0.0123633 0
89.6722 -0.591822 0
89.7297 -0.744255 0
89.5668 -0.18356 0
89.7871 -0.783075 0
89.8621 -0.453586 0
89.8302 -0.818632 0
90.0017 -0.255386 0
89.9793 -0.7093 0
89.9501 -0.833468 0
89.8747 -0.1279 0
90.0808 -0.86143 0
90.2437 -0.842068 0
90.0984 -0.715226 0
90.1339 -0.433343 0
90.2759 -0.966752 0
90.2684 -0.380676 0
90.4075 -0.0655371 0
90.2203 -0.762552 0
90.3818 -0.959436 0
90.4654 -1.02965 0
90.4722 -0.324878 0
90.5965 -0.891701 0
90.7431 -0.978287 0
90.5357 -0.109248 0
90.8802 -0.953845 0
90.8016 -1.06306 0
90.6653 -0.786572 0
90.7089 -0.380505 0
90.8181 -0.445856 0
90.9456 -1.07149 0
90.8506 -0.00766905 0
91.0476 -1.143 0
91.1753 -1.08718 0
91.1337 -1.14331 0
91.0818 -0.250342 0
91.2331 -0.933489 0
91.4719 -0.950195 0
91.0369 -0.00577912 0
91.5614 -1.1273 0
91.7293 -0.960713 0
91.3872 -0.694382 0
91.2048 -0.287401 0
91.7269 -1.08509 0
91.3648 -0.357246 0
91.1454 -0.0173325 0
91.6515 -0.73187 0
91.9796 -0.990484 0
92.1405 -0.926161 0
91.321 -0.078636 0
92.0838 -0.633877 0
92.2245 -0.831293 0
91.1665 0.0292793 0
92.3597 -0.821154 0
92.5422 -0.690895 0
92.1619 -0.247087 0
90.8984 0.00878985 0
92.6933 -0.466248 0
91.8199 0.189951 0
92.0483 0.295515 0
92.5642 -0.311068 0
92.3402 -0.0446159 0
93.0139 -0.0749076 0
91.0124 0.369135 0
93.0001 -0.179382 0
92.5416 0.402361 0
93.1905 0.467811 0
90.9337 0.106571 0
93.1364 1.17756 0
92.903 1.4118 0
89.509 0.198072 0
93.3647 0.863764 0
93.2565 1.34965 0
90.884 1.47485 0
90.6474 0.702739 0
92.1931 1.10425 0
93.1474 1.88804 0
89.7651 0.330546 0
92.6399 2.7845 0
93.3246 2.12481 0
93.336 2.35406 0
88.9742 1.41631 0
91.6524 2.91828 0
92.6886 3.17383 0
88.9611 0.232153 0
92.4993 3.67855 0
92.1466 3.56183 0
91.1563 5.19622 0
86.6227 0.397488 0
92.3056 4.89019 0
90.3028 3.52819 0
88.4172 1.56796 0
88.0129 2.99147 0
92.0654 5.39939 0
90.9146 5.85353 0
87.0682 0.60952 0
90.9858 6.68168 0
87.3808 -4.24561e-05 0
87.3863 -0.000118288 0
87.3939 0.00503945 0
87.3948 0.00236465 0
87.4044 -0.00019275 0
87.4124 0.00465843 0
87.414 0.00639399 0
87.417 0.00238055 0
87.4245 0.000142109 0
87.4304 0.0072116 0
87.4306 0.00467332 0
87.4393 0.000452747 0
87.4469 0.00780346 0
87.4477 0.00880465 0
87.4496 0.00468496 0
87.4571 0.000681823 0
87.4624 0.00933035 0
87.4625 0.0071887 0
87.4708 0.00149159 0
87.4789 0.0115394 0
87.4795 0.0115956 0
87.4901 0.0154409 0
87.4815 0.00595541 0
87.4968 0.00951501 0
87.5085 0.0151863 0
87.4995 0.00971288 0
87.5128 0.0147846 0
87.5203 0.0120899 0
87.5265 0.018997 0
87.517 0.00968098 0
87.5347 0.0131139 0
87.542 0.0212277 0
87.534 0.0101973 0
87.5561 0.0243843 0
87.5585 0.0228021 0
87.5633 0.0173603 0
87.5518 0.012366 0
87.5657 0.0183549 0
87.5803 0.0180596 0
87.5704 0.0116768 0
87.5939 0.0304319 0
87.5921 0.0117305 0
87.6024 0.0208326 0
87.5895 0.0155713 0
87.6055 0.0257798 0
87.6254 0.0296877 0
87.6306 0.0162819 0
87.6209 0.0268929 0
87.6406 0.0318584 0
87.6423 0.0351664 0
87.6615 0.0184502 0
87.653 0.0228397 0
87.6666 0.0323939 0
87.6796 0.0448736 0
87.6832 0.022024 0
87.6903 0.0361667 0
87.6982 0.0469409 0
87.7059 0.0270018 0
87.6907 0.0329071 0
87.7166 0.0515765 0
87.7178 0.0494473 0
87.7227 0.0315928 0
87.732 0.0227217 0
87.7412 0.0456718 0
87.6922 0.0142763 0
87.7564 0.0531624 0
87.7845 0.0631696 0
87.7685 0.0532072 0
87.7545 0.0319736 0
87.7941 0.0634413 0
87.7998 0.0566296 0
87.8088 0.027558 0
87.7827 0.0519838 0
87.8177 0.0592166 0
87.8317 0.0679546 0
87.7862 0.0163319 0
87.8194 0.0486805 0
87.8616 0.0785701 0
87.8262 0.04008 0
87.8705 0.0702171 0
87.8943 0.0826524 0
87.8704 0.0605317 0
87.8812 0.0251937 0
87.901 0.0723286 0
87.9175 0.0847644 0
87.8913 0.0211155 0
87.9368 0.0926394 0
87.9044 0.066931 0
87.9533 0.0776654 0
87.9171 0.0533696 0
87.9639 0.0993837 0
88.0126 0.119563 0
87.9662 0.0309411 0
87.9717 0.0814843 0
88.0338 0.126562 0
88.009 0.0903804 0
87.9575 0.0380287 0
88.0459 0.118444 0
88.0626 0.124142 0
88.0159 0.0307449 0
88.0559 0.0561931 0
88.0864 0.109111 0
88.1048 0.143577 0
88.037 0.0760089 0
88.1288 0.140115 0
88.1453 0.149078 0
88.1321 0.0518918 0
88.1211 0.0929225 0
88.1845 0.166041 0
88.1752 0.141092 0
88.0832 0.0460563 0
88.1973 0.15874 0
88.2378 0.170787 0
88.2026 0.0681871 0
88.2075 0.14511 0
88.287 0.202677 0
88.2701 0.154912 0
88.1564 0.04924 0
88.3059 0.190429 0
88.3613 0.230086 0
88.2477 0.0665053 0
88.3445 0.183334 0
88.315 0.0861872 0
88.3781 0.191514 0
88.2984 0.10795 0
88.4109 0.24405 0
88.456 0.244696 0
88.3585 0.0671876 0
88.4462 0.238082 0
88.5117 0.275129 0
88.4529 0.0712958 0
88.4176 0.200029 0
88.4969 0.234613 0
88.5504 0.27917 0
88.4316 0.0418714 0
88.5566 0.254532 0
88.6454 0.329615 0
88.6214 0.276428 0
88.5516 0.0842748 0
88.6832 0.288088 0
88.5144 0.10704 0
88.5565 0.243508 0
88.679 0.319482 0
88.7727 0.363063 0
88.779 0.371302 0
88.5265 0.00749606 0
88.8653 0.422464 0
88.8736 0.411964 0
88.8878 0.363626 0
88.8216 0.179876 0
88.9135 0.196998 0
88.9058 0.407392 0
88.6934 0.111109 0
89.0131 0.461099 0
89.0021 0.451049 0
89.0044 0.405573 0
88.8958 0.117558 0
89.0768 0.453198 0
89.1901 0.563765 0
89.0467 0.211442 0
89.0021 0.225419 0
89.1457 0.455859 0
89.299 0.588799 0
88.9301 0.139892 0
89.3342 0.62136 0
89.367 0.606339 0
89.1816 0.119601 0
89.4932 0.693435 0
89.5226 0.666839 0
89.5793 0.575864 0
89.3708 0.25429 0
89.3452 0.288007 0
89.5045 0.644392 0
89.2569 0.185994 0
89.6574 0.768273 0
89.7048 0.727378 0
89.7003 0.670903 0
89.4483 0.102536 0
89.8618 0.792214 0
89.8764 0.809791 0
89.7247 0.4566 0
89.9618 0.638648 0
89.7376 0.370401 0
89.926 0.777555 0
89.6335 0.235829 0
90.0736 0.907098 0
90.0951 0.878644 0
89.6648 0.186123 0
90.1594 0.80949 0
90.3308 0.935802 0
90.2486 0.911967 0
90.131 0.213467 0
90.5287 0.981208 0
90.5705 1.04606 0
90.0946 0.632738 0
90.4649 0.776433 0
90.1479 0.386221 0
90.7556 1.1031 0
90.305 0.119877 0
90.8156 1.0736 0
90.8086 1.01849 0
90.1346 0.0949657 0
90.7414 0.9216 0
91.1182 1.09272 0
91.2075 1.10326 0
90.681 0.277143 0
91.2776 1.07814 0
91.3252 1.14901 0
90.669 0.698055 0
91.3304 0.760809 0
90.8295 0.269864 0
91.4869 1.14892 0
90.8499 0.100803 0
91.6289 1.0746 0
91.716 1.05989 0
90.6888 0.0699027 0
91.5381 0.876734 0
91.9986 0.992172 0
92.1584 0.929106 0
91.0977 0.178372 0
91.996 0.869784 0
92.2932 0.881368 0
91.6286 0.74866 0
92.0796 0.440664 0
91.171 0.11285 0
92.0646 0.788271 0
91.1747 0.0416276 0
92.5361 0.776214 0
92.6208 0.628508 0
91.081 0.0389071 0
92.3232 0.313277 0
92.7676 0.345364 0
92.9538 0.210269 0
91.1444 -0.0963564 0
93.0414 0.00718643 0
93.0861 -0.130543 0
91.2844 -0.264189 0
93.1001 -0.160365 0
92.2927 -0.623209 0
91.5772 -0.0846828 0
91.3892 0.00617589 0
93.2327 -0.452904 0
92.9877 -0.855402 0
93.4187 -1.02966 0
91.0336 -0.00501705 0
92.6902 -1.31055 0
93.4129 -1.77024 0
90.9793 -0.122198 0
92.5235 -1.27915 0
93.3836 -2.31414 0
91.9534 -1.75259 0
90.9424 -0.655028 0
93.1871 -2.66696 0
93.0449 -2.96269 0
91.924 -1.10249 0
91.3378 -3.13828 0
89.2822 -2.59696 0
92.6809 -3.00385 0
89.7216 -0.404985 0
92.6594 -3.95919 0
90.0465 7.28683 0
90.7887 6.50925 0
85.3262 1.92717 0
89.9388 7.24475 0
87.6784 6.63385 0
89.2729 7.88026 0
85.9304 0.756077 0
88.2816 8.08615 0
87.0959 7.96083 0
84.6516 0.963088 0
87.1718 8.48786 0
92.5654 -4.38155 0
89.9706 -0.25152 0
92.2942 -4.7296 0
91.0407 -5.13501 0
90.4858 -4.41982 0
89.0556 -0.267997 0
91.282 -5.72567 0
85.851 7.75703 0
90.6189 -7.00969 0
88.7942 -1.3989 0
90.292 -6.7759 0
89.4173 -7.74529 0
83.4741 2.36969 0
88.9753 -7.60212 0
90.2153 -4.23317 0
89.472 -6.88567 0
87.592 -5.09807 0
86.6493 -0.837974 0
88.5232 -6.99586 0
87.7193 -7.40891 0
85.2214 8.18546 0
87.7936 -7.41995 0
87.4989 -0.454002 0
86.7496 -7.77589 0
86.2324 -8.48345 0
85.954 -0.563611 0
85.1302 -8.6299 0
85.6401 -6.33197 0
83.7375 -0.652853 0
84.1071 -8.78285 0
84.1651 -4.87148 0
85.9111 -3.83305 0
84.6519 -7.51846 0
83.5292 -7.87194 0
86.2288 4.39529 0
82.5428 0.529162 0
85.6287 2.93959 0
84.257 -0.0730213 0
82.9821 -8.53948 0
84.8394 7.7528 0
82.2641 0.385071 0
84.2554 6.59735 0
82.1075 -8.40375 0
83.8181 -1.71843 0
81.3757 -6.1351 0
84.2604 8.83778 0
81.1233 2.0285 0
84.1569 8.76293 0
81.8992 7.30954 0
81.4143 0.414165 0
82.5476 7.68447 0
81.9935 -6.38217 0
83.3172 -0.475432 0
81.2455 -8.53232 0
81.2608 -8.29951 0
82.9266 8.25356 0
80.9786 7.86926 0
80.7032 0.0406376 0
82.0538 8.12367 0
80.1451 5.09081 0
80.7103 2.29209 0
80.3138 -8.4804 0
81.1902 -1.10125 0
80.6496 -8.35579 0
79.8499 8.32277 0
79.6786 -7.74829 0
80.2952 -1.07922 0
79.9306 -3.40404 0
78.4068 -7.44359 0
81.436 -4.1148 0
78.2628 -7.19802 0
79.7717 -0.289654 0
77.3423 -6.87762 0
79.4525 2.86871 0
80.0557 0.461581 0
79.4087 6.98748 0
79.4149 0.115607 0
79.2133 8.19948 0
78.9181 7.69588 0
79.0831 0.184642 0
78.1423 6.73485 0
78.8468 0.133344 0
78.7254 -6.43439 0
79.7705 -0.575644 0
79.956 6.05611 0
77.9549 0.73928 0
77.6925 6.32453 0
77.2236 -6.83865 0
79.8846 -0.231479 0
75.5844 -5.84634 0
77.917 -0.441578 0
76.4014 -5.75399 0
78.7 2.55285 0
77.8606 0.120162 0
79.4388 -5.23743 0
77.8634 -0.113167 0
75.7002 -5.41731 0
77.09 5.70637 0
77.0875 -4.27632 0
77.892 -0.245133 0
75.9925 -4.63883 0
78.0702 3.14685 0
75.9129 1.99849 0
76.5789 4.93226 0
77.7107 -0.986938 0
75.8449 -5.14244 0
77.8449 0.402696 0
76.5201 6.65697 0
77.8159 -2.38166 0
77.8618 -0.0846652 0
75.5065 -4.63749 0
76.242 5.94817 0
77.8832 0.717876 0
76.1729 4.64801 0
75.901 4.5885 0
77.8401 0.380443 0
75.0975 4.08459 0
74.6545 -4.16718 0
77.864 -0.296221 0
74.3521 -4.15916 0
76.6814 -1.98318 0
77.8695 -0.202264 0
73.7219 -2.83414 0
75.1669 5.08295 0
77.8138 0.622808 0
76.3773 3.25533 0
74.3247 -2.57478 0
77.7903 -0.311347 0
73.6827 -2.34542 0
74.0463 3.73993 0
77.8018 0.266784 0
74.4421 3.52305 0
74.7357 2.87443 0
77.8615 0.0357172 0
73.9082 3.06172 0
75.0048 -1.515 0
77.7527 -0.542807 0
74.304 -1.33475 0
73.1395 -0.850755 0
77.1382 -0.926858 0
73.1889 -0.720434 0
76.8537 0.960768 0
77.8178 0.0765976 0
75.9898 2.44079 0
73.6863 2.46561 0
77.7078 0.059652 0
73.2626 1.55737 0
77.4571 -0.236619 0
77.8514 -0.111643 0
73.1869 -0.237015 0
73.7064 -0.0929922 0
77.8355 -0.0661598 0
75.8889 0.308501 0
73.8717 0.528088 0
77.8423 -0.0623608 0
77.3003 -5.66835 0
77.9537 -0.433386 0
77.8544 0.132039 0
78.161 6.89754 0
79.1168 -7.75378 0
82.1697 -0.947517 0
80.533 0.998005 0
81.8195 8.63112 0
77.8197 0.279705 0
74.6153 4.86352 0
74.0802 -2.84309 0
77.8203 -0.200251 0
77.9089 -0.572666 0
77.657 -3.67734 0
77.9867 0.802104 0
77.9192 0.201358 0
77.8308 -0.000819642 0
73.7539 2.05675 0
79.3745 0.46693 0
78.4513 1.57853 0
78.7829 -1.37449 0
80.3412 -0.692322 0
86.0439 -1.2687 0
85.6121 -8.47413 0
87.5267 8.08374 0
85.5692 0.468535 0
77.8098 1.66664 0
79.7643 8.01653 0
78.6714 -7.09747 0
79.3386 -2.31816 0
76.9619 -1.46072 0
74.693 -0.223547 0
76.2753 5.84219 0
78.1338 1.89539 0
77.9693 -1.79125 0
74.881 -4.64271 0
92.0364 -5.37239 0
88.7307 -0.660115 0
88.2968 0.789221 0
92.4908 4.46372 0
77.9821 -0.815538 0
77.8917 -0.0454961 0
77.8849 0.148191 0
79.0098 0.758819 0
83.2589 0.735322 0
82.8877 4.11098 0
81.3144 -1.99234 0
84.479 -1.74771 0
81.7909 4.90621 0
84.7765 8.31804 0
83.594 -8.69992 0
82.6875 -1.92191 0
86.8291 1.61135 0
87.9217 5.02849 0
86.4661 -2.79191 0
87.6464 -0.0412995 0
90.9201 -0.247311 0
93.377 -1.28056 0
93.2231 0.478125 0
90.0872 0.0275075 0
91.1399 0.00419047 0
92.662 0.611153 0
92.4418 -0.591509 0
91.2698 0.0311815 0
79.0837 -1.44983 0
78.4985 -0.574596 0
78.421 1.23867 0
79.2536 0.953215 0
78.2527 1.22844 0
77.8911 0.242259 0
77.8603 -0.1062 0
78.171 -1.12943 0
89.7602 0.950263 0
91.0074 1.87207 0
90.0896 -1.14022 0
90.3126 -0.169085 0
76.0191 -0.960122 0
77.855 -0.155836 0
77.4956 -0.439487 0
77.8752 -0.376507 0
77.8582 0.204318 0
77.9055 0.967567 0
91.786 1.00703 0
90.9784 0.158298 0
91.1 -0.00571923 0
91.5263 -1.081 0
81.7869 -0.0396129 0
81.0128 -2.83135 0
82.0985 1.80813 0
80.7646 0.448565 0
77.9104 4.05468 0
77.446 7.33332 0
77.1797 -6.27538 0
78.365 -3.23516 0
78.85 -2.11569 0
77.5871 -2.23298 0
78.0109 4.6475 0
78.276 2.22819 0
91.2723 0.0425038 0
90.9884 0.140123 0
91.1848 -0.0463178 0
92.165 0.120089 0
79.8691 -5.43478 0
80.9634 -5.27066 0
80.5367 4.64976 0
81.1102 8.55149 0
79.1811 -3.9885 0
80.3546 -2.31766 0
80.1908 3.12317 0
79.3219 1.54011 0
91.0558 1.15748 0
90.5175 0.144105 0
90.7347 -0.0123211 0
90.6578 -1.03556 0
77.3439 1.01687 0
77.8485 0.0287925 0
91.1644 -0.0606866 0
91.8062 -0.371078 0
91.522 0.258697 0
91.0123 0.0395948 0
78.8768 -0.958347 0
78.3924 -1.33487 0
79.2002 1.74656 0
78.2594 0.735731 0
77.8974 -0.147163 0
78.1712 -0.700491 0
77.9789 0.31542 0
77.8716 0.136276 0
74.1834 1.7157 0
77.0002 1.52617 0
87.2343 -3.15478 0
90.6114 -6.35389 0
91.5855 5.79868 0
86.9436 2.27546 0
76.8621 -2.31836 0
74.8167 -2.90488 0
89.8964 0.156081 0
90.1537 0.876806 0
89.2559 0.0736453 0
89.8312 0.828052 0
90.172 -0.853762 0
90.0146 -0.141527 0
89.6149 -0.691013 0
89.5289 -0.0146843 0
90.8916 -0.218668 0
91.012 -0.628344 0
90.862 0.395443 0
90.6301 0.00847353 0
77.8613 0.178742 0
77.7007 0.540511 0
76.4977 0.452042 0
74.2745 0.846829 0
77.8039 -0.251077 0
77.8443 -0.169261 0
77.4054 0.274267 0
77.3412 -0.752723 0
93.1865 -2.71871 0
90.0069 -1.74516 0
90.9968 2.21257 0
93.3577 1.5788 0
78.0419 -0.0629703 0
78.1502 -0.364815 0
77.8986 0.0537767 0
78.3356 0.261463 0
90.3413 -0.206706 0
90.3655 -0.533202 0
90.3839 0.357301 0
90.0199 0.115218 0
89.0953 0.163644 0
89.268 0.514449 0
89.2945 -0.600009 0
89.1792 -0.145328 0
78.514 -0.899792 0
79.461 -2.13927 0
78.8888 1.6149 0
78.498 1.27382 0
79.2342 2.88553 0
77.6285 1.85376 0
78.1693 -1.92536 0
78.8532 -2.79833 0
91.6101 -0.523986 0
92.5815 0.329407 0
92.7516 -0.325087 0
92.0326 0.557832 0
77.7215 -1.15135 0
77.8432 -1.36763 0
77.8613 1.08492 0
77.3775 1.30941 0
89.1204 0.530885 0
88.8483 0.158158 0
88.9029 -0.100004 0
89.0687 -0.453323 0
85.3098 4.27313 0
87.3372 7.13713 0
86.8263 -8.40833 0
86.3717 -3.34804 0
75.2966 -3.42949 0
77.6171 -3.51865 0
84.9285 -3.06659 0
85.5835 -1.09923 0
83.9119 0.45491 0
87.2828 3.10916 0
74.8979 4.63171 0
76.7779 2.73619 0
89.7464 -0.0517221 0
89.917 -0.54054 0
89.8012 0.355821 0
89.7155 0.0959928 0
89.1811 -0.369605 0
88.9481 -1.51334 0
89.5071 2.0855 0
88.519 0.27205 0
83.2697 1.39897 0
81.4968 0.351163 0
82.6376 -0.337992 0
83.3127 -3.11484 0
91.4856 0.332442 0
91.7702 0.875718 0
91.9257 -0.952654 0
91.7986 -0.069995 0
82.2912 -3.836 0
83.3993 -1.83924 0
82.6059 2.71517 0
85.1941 5.99471 0
88.7558 0.322272 0
88.6339 0.0610725 0
88.7914 -0.0973541 0
88.752 -0.334672 0
89.2765 -0.18132 0
89.4225 -0.00957688 0
89.3982 0.101423 0
89.2516 0.424608 0
80.0006 0.498664 0
79.7541 1.30621 0
80.0199 -1.14794 0
80.8789 -0.320305 0
81.5665 2.83119 0
79.9218 1.95165 0
79.3034 -2.83843 0
78.4586 -2.86649 0
90.9543 -0.47677 0
90.6985 -0.276308 0
90.5119 0.372796 0
91.4666 0.615877 0
79.9263 3.85136 0
80.4318 2.57513 0
79.3618 -0.825645 0
79.1856 -0.294228 0
79.0199 0.266132 0
79.7605 0.889392 0
76.6199 -0.87563 0
77.5757 -1.34979 0
92.5395 -3.63274 0
90.0531 -2.06315 0
89.4917 3.74906 0
92.9322 3.69319 0
77.9215 -0.865576 0
77.8883 -0.14369 0
77.8304 0.198042 0
77.9944 0.847986 0
78.2626 0.0872259 0
78.2892 0.626693 0
78.4446 -0.343183 0
78.597 -0.0199384 0
75.4973 -0.269203 0
73.2026 0.151711 0
85.3176 3.22661 0
89.4529 2.97355 0
88.1284 -2.51567 0
88.7271 -4.97558 0
77.6393 2.06952 0
77.1923 1.15555 0
77.8598 -0.0254546 0
77.685 -0.0510429 0
80.5086 6.84516 0
78.3758 4.06348 0
80.132 -4.30378 0
79.1707 -8.11835 0
77.4137 0.784922 0
77.7913 0.424217 0
90.8971 0.52589 0
91.2346 1.14396 0
90.9473 -1.03925 0
90.8729 -0.205823 0
88.9151 -0.117446 0
89.1029 -0.079968 0
89.0778 0.0685897 0
88.9949 0.392366 0
93.1247 0.399265 0
91.9542 1.36476 0
92.0278 -0.537077 0
93.2535 -0.656084 0
77.5104 0.106933 0