# vtk DataFile Version 3.0
Unstructured Grid for Triangles
ASCII
DATASET UNSTRUCTURED_GRID
POINTS 29612 DOUBLE
-2.72397e-05 1.23686e-06 0
-2.95789e-05 9.5838e-07 0
-2.77865e-05 -3.1235e-07 0
0.0002024 5e-05 0
0.000203975 4.9875e-05 0
0.000205 5e-05 0
0.000203975 -4.9875e-05 0
0.0002024 -5e-05 0
0.000205 -5e-05 0
0.00020295 4.975e-05 0
0.00020295 -4.975e-05 0
0.000201925 4.9625e-05 0
0.000201925 -4.9625e-05 0
-5.29747e-05 -4.79887e-05 0
-5.5e-05 -5e-05 0
-5.24e-05 -5e-05 0
-5.05983e-05 -4.84325e-05 0
-4.98e-05 -5e-05 0
-4.72e-05 -5e-05 0
-4.83864e-05 -4.87761e-05 0
-4.46e-05 -5e-05 0
-4.59e-05 -4.84239e-05 0
-4.29453e-05 -4.24878e-05 0
-4.47486e-05 -4.20717e-05 0
-4.41829e-05 -4.36609e-05 0
-5.12578e-05 -4.62101e-05 0
-4.93077e-05 -4.53594e-05 0
-5.0706e-05 -4.39006e-05 0
-4.19243e-05 -4.77545e-05 0
-4.40307e-05 -4.71837e-05 0
-4.3691e-05 -4.86724e-05 0
-5.16129e-05 -4.20948e-05 0
-4.95355e-05 -4.15432e-05 0
-5.11646e-05 -4.0128e-05 0
-3.94697e-05 -4.81197e-05 0
-4.06302e-05 -4.55143e-05 0
-5.37257e-05 -3.88197e-05 0
-5.31099e-05 -4.07297e-05 0
-5.23982e-05 -3.88328e-05 0
-3.70063e-05 -4.72956e-05 0
-3.68e-05 -5e-05 0
-3.5308e-05 -4.85302e-05 0
-5.072e-05 -3.7867e-05 0
-4.85506e-05 -3.83975e-05 0
-4.90949e-05 -3.59622e-05 0
-3.37127e-05 -4.84331e-05 0
-3.16e-05 -5e-05 0
-3.26495e-05 -4.7415e-05 0
-5.5e-05 -3.5e-05 0
-5.31201e-05 -3.70361e-05 0
-5.28367e-05 -3.46817e-05 0
-3.63898e-05 -4.48809e-05 0
-3.83315e-05 -4.60336e-05 0
-3.26269e-06 -4.15503e-05 0
-5.99662e-06 -4.09556e-05 0
-5.46944e-06 -4.29488e-05 0
-5.29747e-05 4.79887e-05 0
-5.5e-05 5e-05 0
-5.5e-05 4.75e-05 0
-5.5e-05 4.5e-05 0
-5.34834e-05 4.29171e-05 0
-5.26943e-05 4.42611e-05 0
-5.34026e-05 4.60176e-05 0
-5.31099e-05 4.07297e-05 0
-5.11672e-05 4.01178e-05 0
-5.16129e-05 4.20948e-05 0
-5.24e-05 5e-05 0
-5.05983e-05 4.84325e-05 0
-5.31201e-05 3.70361e-05 0
-5.072e-05 3.7867e-05 0
-5.23982e-05 3.88328e-05 0
-4.8341e-05 4.69132e-05 0
-4.83679e-05 4.87539e-05 0
-5.28367e-05 3.46817e-05 0
-5.5e-05 3.25e-05 0
-5.25657e-05 3.28474e-05 0
-4.98e-05 5e-05 0
-5.30382e-05 3.125e-05 0
-4.19243e-05 4.77545e-05 0
-4.40015e-05 4.7335e-05 0
-4.25917e-05 4.63678e-05 0
-4.35138e-05 2.62661e-05 0
-4.14982e-05 2.74462e-05 0
-4.35654e-05 2.85217e-05 0
-4.59e-05 4.84239e-05 0
-4.36852e-05 4.87027e-05 0
-4.46e-05 5e-05 0
-5.33308e-05 2.92503e-05 0
-5.5e-05 2.75e-05 0
-5.23377e-05 2.76953e-05 0
-4.25282e-05 4.46352e-05 0
-4.09368e-05 4.35728e-05 0
-4.06302e-05 4.55143e-05 0
0.0002009 4.95e-05 0
0.0001998 5e-05 0
0.000199875 4.9375e-05 0
0.00019885 4.925e-05 0
0.0001972 5e-05 0
0.000197825 4.9125e-05 0
0.0001968 4.9e-05 0
0.000195775 4.8875e-05 0
0.0001946 5e-05 0
0.00019475 4.875e-05 0
0.000193725 4.8625e-05 0
0.000192 5e-05 0
0.0001927 4.85e-05 0
0.000191675 4.8375e-05 0
0.00019065 4.825e-05 0
0.0001894 5e-05 0
0.000189625 4.8125e-05 0
0.0001886 4.8e-05 0
0.0001868 5e-05 0
0.000187575 4.7875e-05 0
0.00018655 4.775e-05 0
0.000185515 4.8575e-05 0
0.0001842 5e-05 0
0.0001845 4.75e-05 0
0.000185525 4.7625e-05 0
0.000182564 4.829e-05 0
0.0001816 5e-05 0
0.00018245 4.725e-05 0
0.000183475 4.7375e-05 0
0.000181425 4.7125e-05 0
0.000180295 4.82657e-05 0
0.000179 5e-05 0
0.000179375 4.6875e-05 0
0.0001804 4.7e-05 0
0.000178168 4.80619e-05 0
0.0001764 5e-05 0
0.000177325 4.6625e-05 0
0.00017835 4.675e-05 0
0.000176428 4.76631e-05 0
0.0001763 4.65e-05 0
0.0001738 5e-05 0
0.0001751 4.84164e-05 0
0.000175275 4.6375e-05 0
0.000174025 4.75632e-05 0
0.0001712 5e-05 0
0.000172615 4.78449e-05 0
0.0001722 4.6e-05 0
0.000173225 4.6125e-05 0
0.00017015 4.575e-05 0
0.000171243 4.7381e-05 0
0.000169554 4.79999e-05 0
0.0001686 5e-05 0
0.000167507 4.79751e-05 0
0.000168498 4.64861e-05 0
0.000166 5e-05 0
0.00016558 4.71459e-05 0
0.000167135 4.62887e-05 0
0.0001681 4.55e-05 0
0.00016605 4.525e-05 0
0.000167075 4.5375e-05 0
0.000164059 4.61599e-05 0
0.00016394 4.79552e-05 0
0.000162881 4.6615e-05 0
0.000162975 4.4875e-05 0
0.000165025 4.5125e-05 0
0.000164 4.5e-05 0
0.000161754 4.58641e-05 0
0.000161722 4.78101e-05 0
0.000159956 4.58294e-05 0
0.000160925 4.4625e-05 0
0.00016195 4.475e-05 0
0.000157667 4.60322e-05 0
0.000158875 4.4375e-05 0
0.000159194 4.80155e-05 0
0.0001599 4.45e-05 0
0.00015785 4.425e-05 0
0.000155808 4.56757e-05 0
0.000155647 4.76701e-05 0
0.000154059 4.66642e-05 0
0.000153756 4.50083e-05 0
0.000154839 4.50446e-05 0
0.000156825 4.4125e-05 0
0.000151954 4.80508e-05 0
0.000154052 4.8477e-05 0
0.000153 5e-05 0
0.000154775 4.3875e-05 0
0.000152142 4.56625e-05 0
0.000152821 4.45753e-05 0
0.00015375 4.375e-05 0
0.0001504 5e-05 0
0.000149644 4.85168e-05 0
0.000151787 4.43178e-05 0
0.000152725 4.3625e-05 0
0.000150675 4.3375e-05 0
0.0001517 4.35e-05 0
0.000148119 4.50887e-05 0
0.000148072 4.75757e-05 0
0.000146584 4.63516e-05 0
0.000150008 4.6396e-05 0
0.000149351 4.4543e-05 0
0.00015061 4.46252e-05 0
0.0001476 4.3e-05 0
0.000148625 4.3125e-05 0
0.000146492 4.82975e-05 0
0.000144888 4.73562e-05 0
0.000146676 4.44259e-05 0
0.000145255 4.53656e-05 0
0.000145652 4.38669e-05 0
0.000141401 4.79821e-05 0
0.0001426 5e-05 0
0.00014 5e-05 0
0.000144374 4.38862e-05 0
0.00014555 4.275e-05 0
0.0001435 4.25e-05 0
0.000144525 4.2625e-05 0
0.000142746 4.38121e-05 0
0.000141288 4.43191e-05 0
0.000141707 4.32778e-05 0
0.00013921 4.38992e-05 0
0.000140355 4.5932e-05 0
0.000138302 4.5922e-05 0
0.000142912 4.58869e-05 0
0.000140592 4.30037e-05 0
0.00014145 4.225e-05 0
0.000136458 4.5869e-05 0
0.000137106 4.4063e-05 0
0.0001394 4.2e-05 0
0.000138259 4.28915e-05 0
0.000137484 4.77094e-05 0
0.000139166 4.78902e-05 0
0.00013586 4.78984e-05 0
0.000133449 4.78649e-05 0
0.000134717 4.61848e-05 0
0.000137256 4.25134e-05 0
0.000135323 4.24541e-05 0
0.000136325 4.1625e-05 0
0.000136122 4.2876e-05 0
0.000131206 4.47284e-05 0
0.000133168 4.56738e-05 0
0.000131773 4.65243e-05 0
0.000134756 4.40343e-05 0
0.000132747 4.36463e-05 0
0.000133483 4.26786e-05 0
0.000131081 4.1867e-05 0
0.000132382 4.22815e-05 0
0.000131507 4.3122e-05 0
0.000131059 4.80123e-05 0
0.00013325 4.125e-05 0
0.00012915 4.075e-05 0
0.00012982 4.18199e-05 0
0.000128915 4.26216e-05 0
0.000126366 4.47574e-05 0
0.000127331 4.30908e-05 0
0.000128781 4.44872e-05 0
0.000125336 4.28376e-05 0
0.000130218 4.31077e-05 0
0.000127894 4.16344e-05 0
0.000124774 4.69608e-05 0
0.000127668 4.64148e-05 0
0.000126591 4.8331e-05 0
0.000126722 4.18415e-05 0
0.000125768 4.11931e-05 0
0.000124326 4.13546e-05 0
0.00012505 4.025e-05 0
0.000122408 4.50118e-05 0
0.000120276 4.47432e-05 0
0.00012139 4.32235e-05 0
0.000124336 4.44132e-05 0
0.000123056 4.27595e-05 0
0.000122977 4.09049e-05 0
0.00012185 4.69217e-05 0
0.000122676 4.85947e-05 0
0.000120525 4.86094e-05 0
0.000121479 4.13153e-05 0
0.000119547 4.24221e-05 0
0.000120249 4.07448e-05 0
0.000119925 3.9625e-05 0
0.000119346 4.06114e-05 0
0.000117479 4.47279e-05 0
0.000114726 4.45259e-05 0
0.00011571 4.27814e-05 0
0.000119443 4.66611e-05 0
0.000117447 4.21596e-05 0
0.000118421 4.0752e-05 0
0.000117409 4.04437e-05 0
0.000116775 4.70073e-05 0
0.0001179 4.855e-05 0
0.000115473 4.84802e-05 0
0.00011685 3.925e-05 0
0.000117875 3.9375e-05 0
0.000115454 4.00551e-05 0
0.0001148 3.9e-05 0
0.000115825 3.9125e-05 0
0.000111704 4.23398e-05 0
0.000113786 4.26731e-05 0
0.000112589 4.43871e-05 0
0.000113234 4.06671e-05 0
0.000114754 4.13371e-05 0
0.0001106 4.42326e-05 0
0.000109703 4.24261e-05 0
0.00011275 3.875e-05 0
0.000113775 3.8875e-05 0
0.000110211 4.80875e-05 0
0.000108244 4.71951e-05 0
0.000109312 4.58413e-05 0
0.000111755 3.99116e-05 0
0.00010944 3.92972e-05 0
0.000110415 4.05876e-05 0
0.000108839 4.07536e-05 0
0.000106472 4.76905e-05 0
0.000107274 4.57868e-05 0
0.000108011 3.92415e-05 0
0.000106885 4.04365e-05 0
0.000106625 3.88708e-05 0
0.000105286 4.19254e-05 0
0.000105055 3.95469e-05 0
0.000104215 4.39764e-05 0
0.000106346 4.40629e-05 0
0.000100945 4.51249e-05 0
0.000102825 4.5614e-05 0
0.000101189 4.68452e-05 0
0.000107625 3.8125e-05 0
0.000105575 3.7875e-05 0
0.0001066 3.8e-05 0
0.000103352 4.76905e-05 0
0.000101803 4.8465e-05 0
0.000103685 3.89398e-05 0
0.00010245 3.8825e-05 0
0.000103525 3.7625e-05 0
0.000101092 3.99779e-05 0
0.000101267 3.82619e-05 0
0.000101382 4.2025e-05 0
0.000103187 4.05286e-05 0
0.000103359 4.24605e-05 0
9.87383e-05 4.5447e-05 0
9.99411e-05 4.35161e-05 0
9.744e-05 4.33145e-05 0
0.00010045 3.725e-05 0
0.000101475 3.7375e-05 0
9.70845e-05 4.65215e-05 0
9.52614e-05 4.67664e-05 0
9.61768e-05 4.49944e-05 0
9.9729e-05 3.87704e-05 0
9.78901e-05 3.9598e-05 0
9.85823e-05 3.81492e-05 0
9.62289e-05 3.93709e-05 0
9.74259e-05 3.81279e-05 0
9.7375e-05 3.6875e-05 0
9.63045e-05 3.76631e-05 0
9.58e-05 5e-05 0
9.32e-05 5e-05 0
9.47542e-05 4.8457e-05 0
9.49675e-05 3.85246e-05 0
9.36214e-05 3.89472e-05 0
9.40006e-05 3.74906e-05 0
9.66411e-05 4.12573e-05 0
9.44241e-05 4.07079e-05 0
9.03569e-05 4.24993e-05 0
9.21701e-05 4.02409e-05 0
9.27439e-05 4.27744e-05 0
8.89795e-05 4.09067e-05 0
9.03071e-05 4.0248e-05 0
9.25447e-05 3.77721e-05 0
9.3275e-05 3.6375e-05 0
9.07708e-05 3.87127e-05 0
9.11303e-05 3.70839e-05 0
9.11933e-05 4.55145e-05 0
9.30678e-05 4.73279e-05 0
9.11886e-05 4.82603e-05 0
8.87724e-05 3.88076e-05 0
8.99595e-05 3.75116e-05 0
9.02e-05 3.6e-05 0
8.89241e-05 3.6954e-05 0
8.36977e-05 4.59472e-05 0
8.36223e-05 4.83578e-05 0
8.20467e-05 4.74142e-05 0
8.71227e-05 4.03557e-05 0
8.61e-05 3.55e-05 0
8.68368e-05 3.65714e-05 0
8.5484e-05 3.6588e-05 0
8.47735e-05 4.02845e-05 0
8.23121e-05 4.21599e-05 0
8.26582e-05 3.98147e-05 0
8.46943e-05 4.2454e-05 0
8.38832e-05 3.78613e-05 0
8.35569e-05 3.63808e-05 0
8.44098e-05 3.6291e-05 0
8.5075e-05 3.5375e-05 0
8.51465e-05 4.77163e-05 0
8.3025e-05 3.5125e-05 0
8.22824e-05 3.68659e-05 0
8.1446e-05 3.57362e-05 0
8.05884e-05 3.71794e-05 0
7.53471e-05 4.77524e-05 0
7.38313e-05 4.73927e-05 0
7.39102e-05 4.61526e-05 0
7.9826e-05 3.58588e-05 0
7.88607e-05 3.76287e-05 0
7.81733e-05 3.57987e-05 0
8.16783e-05 3.84471e-05 0
8.07975e-05 4.04095e-05 0
7.52138e-05 4.04775e-05 0
7.67682e-05 4.17043e-05 0
7.49617e-05 4.21803e-05 0
7.52903e-05 3.84008e-05 0
7.38293e-05 3.93136e-05 0
[...]
CELL_DATA 58684
VECTORS velocity DOUBLE
74.1522 0.36123 0
84.8848 0.000294989 0
84.8401 0.00111603 0
84.8846 0.020703 0
84.8273 -0.0274543 0
84.9152 -0.0120434 0
84.8623 0.0158727 0
77.8047 -0.013029 0
77.7875 -0.0541989 0
77.8528 -0.0160798 0
77.9603 -0.0225643 0
78.01 -0.71376 0
77.7895 -0.271107 0
78.0955 -0.22173 0
77.7725 -0.454052 0
78.2912 -0.259852 0
77.8119 -0.262476 0
78.5757 -0.190118 0
77.84 -0.748322 0
79.0369 -0.139427 0
77.8672 -0.258257 0
78.5668 -0.458386 0
85.1784 -2.22903 0
77.8311 0.0261672 0
77.7943 0.126953 0
77.8333 0.0598139 0
77.8017 0.340929 0
77.7867 0.0530048 0
77.8307 0.457001 0
77.8631 0.117819 0
77.8614 0.335032 0
77.8062 0.0716629 0
77.7664 0.336895 0
78.1815 0.274952 0
77.8857 1.74316 0
78.0236 0.119427 0
77.9101 0.396988 0
78.243 0.546343 0
84.8915 -0.0339256 0
84.8977 -0.000448478 0
84.9375 -0.00131348 0
84.9383 -0.03865 0
84.9153 0.00152127 0
84.9557 -0.00409614 0
84.967 -0.032076 0
84.961 -0.0391168 0
84.9569 -0.00097604 0
85.0014 -0.027156 0
85.0028 -0.0432852 0
84.9794 0.0046417 0
85.0373 -0.0264773 0
85.0413 -0.0469277 0
85.0435 -0.0421981 0
85.0391 0.000578013 0
85.0816 -0.036847 0
85.0872 -0.0392698 0
85.0693 0.00699836 0
85.1314 -0.0447773 0
85.1353 -0.0544259 0
85.1423 -0.0367929 0
85.1452 0.00199563 0
85.1854 -0.0657326 0
85.1951 -0.0421481 0
85.2328 -0.0017828 0
85.2542 -0.0626846 0
85.2568 -0.0695481 0
85.2665 -0.0371518 0
85.2909 0.00208448 0
85.3158 -0.0713242 0
85.3278 -0.037709 0
85.345 0.00585016 0
85.3821 -0.0769282 0
85.3989 -0.0557945 0
85.4347 -0.0817986 0
85.4327 0.0024013 0
85.467 -0.0575316 0
85.4832 -0.0345899 0
85.5102 0.00208889 0
85.5376 -0.0765802 0
85.5995 -0.0475499 0
85.5478 -0.0619092 0
85.6028 -0.0011237 0
85.6367 -0.0400923 0
85.6146 -0.0706781 0
85.71 -0.044294 0
85.6829 -0.0587806 0
85.6788 -0.0786682 0
85.7171 -0.0987221 0
85.7846 -0.0574422 0
85.8233 -0.0764571 0
85.756 -0.0708802 0
85.8021 -0.101523 0
85.8538 -0.0776493 0
85.8477 -0.0745455 0
85.8657 -0.104113 0
85.948 -0.0895633 0
85.9078 -0.0834451 0
85.9264 -0.109548 0
85.9766 -0.121974 0
85.994 -0.0901833 0
86.0567 -0.110044 0
85.9988 -0.0969124 0
86.0672 -0.0335409 0
86.0635 -0.121451 0
86.1124 -0.111844 0
86.0894 -0.124576 0
86.1253 -0.0347836 0
86.122 -0.132659 0
86.1564 -0.145981 0
86.2118 -0.083462 0
86.2023 -0.0867713 0
86.1644 -0.119145 0
86.2324 -0.154294 0
86.2476 -0.0660545 0
86.3 -0.139018 0
86.2754 -0.0921405 0
86.3603 -0.00930237 0
86.3144 -0.160876 0
86.34 -0.180462 0
86.4095 -0.164198 0
86.4538 -0.124842 0
86.3751 -0.0967403 0
86.4251 -0.187866 0
86.5008 -0.127883 0
86.4782 -0.189931 0
86.4518 -0.0704923 0
86.5129 -0.176237 0
86.5532 -0.0698848 0
86.5291 -0.197406 0
86.5731 -0.226464 0
86.6478 -0.133304 0
86.6269 -0.188709 0
86.591 -0.0906177 0
86.6839 -0.231051 0
86.6181 -0.0724309 0
86.6506 -0.236074 0
86.7519 -0.249124 0
86.7828 -0.177936 0
86.8059 -0.204037 0
86.739 -0.210625 0
86.7837 -0.229888 0
86.7526 -0.093118 0
86.8482 -0.249831 0
86.8852 -0.273915 0
86.9355 -0.167407 0
86.8285 -0.126857 0
86.8878 -0.232017 0
86.9099 -0.263128 0
86.8641 -0.0549142 0
87.0114 -0.265966 0
87.0242 -0.288927 0
87.0836 -0.168024 0
86.9655 -0.147761 0
87.0504 -0.235342 0
87.0749 -0.276252 0
86.9984 -0.0534111 0
87.1042 -0.31202 0
87.1682 -0.316885 0
87.1812 -0.209058 0
87.1828 -0.249168 0
87.2419 -0.210797 0
87.2259 -0.306749 0
87.2171 -0.0730408 0
87.2434 -0.286037 0
87.3422 -0.271936 0
87.2912 -0.0863077 0
87.4253 -0.297033 0
87.4588 -0.264703 0
87.4238 -0.169923 0
87.5059 -0.11888 0
87.4361 -0.306091 0
87.4861 -0.324586 0
87.4735 -0.0620465 0
87.5822 -0.309423 0
87.6397 -0.307145 0
87.5359 -0.225406 0
87.6074 -0.136646 0
87.6601 -0.172868 0
87.6855 -0.343543 0
87.7335 -0.105521 0
87.7679 -0.313007 0
87.813 -0.295014 0
87.8451 -0.344453 0
87.7823 -0.00270713 0
87.9747 -0.3336 0
87.8328 -0.259759 0
87.9995 -0.220919 0
88.0934 -0.257561 0
88.0369 -0.364671 0
88.1152 -0.365139 0
87.9433 -0.0785417 0
88.1716 -0.349122 0
88.2028 -0.407519 0
88.2218 -0.389487 0
88.3996 -0.0886922 0
88.2127 -0.305222 0
88.4223 -0.450795 0
88.5177 -0.342199 0
88.4194 -0.284017 0
88.5124 -0.483661 0
88.4832 -0.473129 0
88.3706 -0.0772331 0
88.6296 -0.539902 0
88.68 -0.502323 0
88.9922 -0.0907564 0
88.8199 -0.567421 0
88.6193 -0.37642 0
88.9825 -0.355795 0
89.0567 -0.470759 0
88.9004 -0.514039 0
88.9178 -0.620808 0
89.0642 -0.220757 0
89.1514 -0.602471 0
89.0865 -0.705875 0
89.3334 -0.720997 0
89.3601 -0.00655999 0
89.298 -0.591868 0
89.3534 -0.753411 0
89.2187 -0.180108 0
89.4312 -0.797664 0
89.5823 -0.445696 0
89.4871 -0.838385 0
89.7954 -0.250807 0
89.7047 -0.714332 0
89.6581 -0.852494 0
89.6477 -0.129144 0
89.8256 -0.880842 0
90.0389 -0.857028 0
89.8771 -0.728853 0
89.9449 -0.43471 0
90.0754 -0.992541 0
90.1137 -0.386178 0
90.276 -0.0669131 0
90.0187 -0.772355 0
90.2045 -0.977951 0
90.3011 -1.05422 0
90.3405 -0.331882 0
90.4508 -0.905894 0
90.6083 -0.989343 0
90.4062 -0.112693 0
90.749 -0.96169 0
90.6733 -1.07146 0
90.5291 -0.800518 0
90.5781 -0.392812 0
90.6848 -0.460865 0
90.8187 -1.0724 0
90.6952 -0.0101094 0
90.9195 -1.13969 0
91.0428 -1.08133 0
91.0036 -1.1357 0
90.9007 -0.268969 0
91.0803 -0.937523 0
91.3058 -0.948976 0
90.8305 -0.00946226 0
91.3935 -1.10853 0
91.5276 -0.95612 0
91.2102 -0.710991 0
91.0078 -0.310967 0
91.537 -1.06687 0
91.1561 -0.38333 0
90.868 -0.0236737 0
91.4445 -0.744602 0
91.7576 -0.977169 0
91.8939 -0.920634 0
91.0405 -0.10399 0
91.8117 -0.65602 0
91.9646 -0.832933 0
90.8403 0.0123472 0
92.0786 -0.820646 0
92.2383 -0.702136 0
91.855 -0.295326 0
90.5259 0.00411448 0
92.3657 -0.495796 0
91.4714 0.128687 0
91.6933 0.225663 0
92.2342 -0.354382 0
92.0121 -0.102544 0
92.657 -0.134875 0
90.6259 0.327913 0
92.6457 -0.232547 0
92.1797 0.322811 0
92.8206 0.381317 0
90.5528 0.0903294 0
92.7659 1.07612 0
92.5336 1.30983 0
89.0988 0.19487 0
92.992 0.762848 0
92.8915 1.24293 0
90.4914 1.41458 0
90.2435 0.665585 0
91.8164 1.0162 0
92.7882 1.78263 0
89.3581 0.323187 0
92.2894 2.68634 0
92.9652 2.00992 0
92.9783 2.2412 0
88.5771 1.41204 0
91.2951 2.83643 0
92.356 3.07798 0
88.5526 0.232063 0
92.1657 3.59024 0
91.8148 3.4936 0
90.8502 5.16129 0
86.2234 0.411214 0
92.004 4.82637 0
89.9635 3.48928 0
88.0249 1.57435 0
87.6543 3.01311 0
91.7685 5.34651 0
90.6396 5.83818 0
86.6773 0.624187 0
90.7169 6.66127 0
84.8395 0.0304906 0
84.8403 0.000851939 0
84.8738 -0.00120477 0
84.8712 0.039595 0
84.8483 -0.00187934 0
84.8895 0.00483438 0
84.8988 0.0351838 0
84.8913 0.0429783 0
84.8905 0.000618636 0
84.9314 0.0246379 0
84.9345 0.0373414 0
84.9092 -0.00469295 0
84.9662 0.0277412 0
84.9697 0.0471702 0
84.9713 0.0419697 0
84.9668 -0.000559788 0
85.0107 0.0395883 0
85.0158 0.0435454 0
84.9993 -0.006734 0
85.0633 0.045199 0
85.0677 0.0560682 0
85.1177 0.0670808 0
85.075 0.0375059 0
85.1369 0.0327048 0
85.1739 0.0548725 0
85.1317 0.046087 0
85.1989 0.072218 0
85.2099 0.0401466 0
85.2554 0.0700551 0
85.2046 0.0452425 0
85.2743 0.0432422 0
85.3266 0.0780466 0
85.2811 0.0427562 0
85.3895 0.088502 0
85.3941 0.0884934 0
85.4159 0.0572729 0
85.3555 0.0460074 0
85.4248 0.0638158 0
85.482 0.0502234 0
85.4422 0.0388645 0
85.5416 0.0971596 0
85.5305 0.0431491 0
85.57 0.0535278 0
85.5243 0.0512923 0
85.5862 0.0780931 0
85.6577 0.0864109 0
85.6864 0.0488168 0
85.649 0.0826566 0
85.7143 0.0852661 0
85.7252 0.100172 0
85.7883 0.0427771 0
85.7675 0.0623067 0
85.81 0.0830634 0
85.8493 0.117969 0
85.8701 0.0536917 0
85.8802 0.086359 0
85.9104 0.121151 0
85.9489 0.067724 0
85.8944 0.0875081 0
85.9708 0.129156 0
85.9751 0.124515 0
85.9999 0.0758262 0
86.0263 0.0542454 0
86.0508 0.11205 0
85.9085 0.037446 0
86.0866 0.12752 0
86.1551 0.148751 0
86.121 0.126522 0
86.0922 0.0756179 0
86.1816 0.14862 0
86.1972 0.131705 0
86.2435 0.0655076 0
86.1631 0.12014 0
86.2449 0.13577 0
86.275 0.153336 0
86.1851 0.0386171 0
86.2601 0.11164 0
86.3368 0.173525 0
86.277 0.0911812 0
86.361 0.155383 0
86.4159 0.186818 0
86.3719 0.134843 0
86.4142 0.0579336 0
86.4361 0.16419 0
86.4605 0.185183 0
86.4382 0.0460459 0
86.5015 0.202829 0
86.4544 0.147308 0
86.55 0.170339 0
86.481 0.119661 0
86.5533 0.215828 0
86.6416 0.246472 0
86.5956 0.0663541 0
86.5898 0.170793 0
86.6814 0.258478 0
86.6499 0.181469 0
86.5709 0.0828237 0
86.7051 0.240828 0
86.7378 0.245551 0
86.6841 0.0656418 0
86.7582 0.112635 0
86.794 0.214003 0
86.8073 0.273447 0
86.7143 0.148048 0
86.8531 0.266744 0
86.8834 0.274297 0
86.884 0.0968779 0
86.8555 0.177182 0
86.9462 0.289602 0
86.9371 0.245134 0
86.8073 0.0888103 0
86.9682 0.269225 0
87.0415 0.279351 0
86.9993 0.115807 0
86.9885 0.24246 0
87.1134 0.319339 0
87.0939 0.240223 0
86.9299 0.0836842 0
87.148 0.293973 0
87.2365 0.327748 0
87.075 0.1021 0
87.2172 0.255195 0
87.1801 0.12187 0
87.2716 0.257456 0
87.1497 0.153809 0
87.3169 0.331685 0
87.399 0.308882 0
87.2582 0.0865984 0
87.3826 0.298454 0
87.4851 0.323834 0
87.4204 0.0799455 0
87.3362 0.256877 0
87.4729 0.271835 0
87.5515 0.318141 0
87.3768 0.0492018 0
87.5679 0.281682 0
87.6999 0.348369 0
87.6759 0.285871 0
87.5827 0.0830889 0
87.7722 0.291065 0
87.5173 0.111925 0
87.5659 0.270245 0
87.7566 0.328335 0
87.9 0.358155 0
87.9168 0.363259 0
87.5436 0.00387843 0
88.0436 0.406756 0
88.0636 0.390857 0
88.1069 0.34158 0
88.0279 0.159752 0
88.1726 0.173517 0
88.1174 0.386272 0
87.8115 0.1029 0
88.2823 0.430183 0
88.2752 0.424937 0
88.2924 0.377838 0
88.1568 0.109637 0
88.4001 0.420198 0
88.5541 0.538877 0
88.4036 0.196793 0
88.3158 0.201556 0
88.5193 0.432696 0
88.7198 0.564259 0
88.2053 0.123352 0
88.7715 0.603341 0
88.8285 0.585366 0
88.6416 0.10894 0
89.0126 0.689771 0
89.0567 0.656711 0
89.1684 0.566906 0
88.92 0.237654 0
88.8642 0.266068 0
89.0475 0.636577 0
88.7388 0.166932 0
89.2556 0.77794 0
89.3264 0.729038 0
89.3414 0.674092 0
89.0599 0.0952257 0
89.5476 0.80286 0
89.5715 0.823758 0
89.404 0.44391 0
89.7036 0.642245 0
89.4407 0.358286 0
89.6441 0.789275 0
89.3051 0.221172 0
89.8297 0.92801 0
89.8601 0.89388 0
89.3739 0.184599 0
89.9497 0.823589 0
90.1501 0.950955 0
90.0536 0.929575 0
89.9621 0.212611 0
90.3747 0.993171 0
90.4209 1.0611 0
89.8864 0.6358 0
90.3158 0.788936 0
89.9721 0.385321 0
90.622 1.11205 0
90.1652 0.121619 0
90.6844 1.07959 0
90.6748 1.02466 0
89.9765 0.0963872 0
90.604 0.931126 0
90.9853 1.08947 0
91.0702 1.09739 0
90.5509 0.288419 0
91.1348 1.07127 0
91.1777 1.13555 0
90.5347 0.708522 0
91.1638 0.774869 0
90.6882 0.28387 0
91.3257 1.13084 0
90.7001 0.108763 0
91.4511 1.06099 0
91.5268 1.04699 0
90.554 0.0746205 0
91.3491 0.880629 0
91.7712 0.979522 0
91.907 0.923756 0
90.9085 0.197658 0
91.7578 0.869836 0
92.0206 0.877029 0
91.4253 0.764096 0
91.7893 0.476566 0
90.9486 0.132909 0
91.8076 0.794733 0
90.9176 0.0535484 0
92.2333 0.780786 0
92.3051 0.648208 0
90.8608 0.04429 0
92.0083 0.356572 0
92.4319 0.385785 0
92.5999 0.262089 0
90.7921 -0.0768745 0
92.6767 0.0719053 0
92.72 -0.0578999 0
90.9152 -0.217143 0
92.7307 -0.0862956 0
91.9192 -0.537162 0
91.2543 -0.0361048 0
91.0846 0.0405497 0
92.8556 -0.364718 0
92.6112 -0.758178 0
93.0417 -0.92317 0
90.6818 0.000204173 0
92.3152 -1.20586 0
93.0419 -1.65342 0
90.5978 -0.10415 0
92.1449 -1.17843 0
93.0217 -2.19711 0
91.5802 -1.66058 0
90.5443 -0.608592 0
92.8303 -2.55304 0
92.6981 -2.85223 0
91.5406 -1.01762 0
90.985 -3.0679 0
88.9099 -2.58492 0
92.3323 -2.90938 0
89.3143 -0.388879 0
92.335 -3.86726 0
89.7891 7.28803 0
90.5237 6.49426 0
84.9502 1.99197 0
89.6826 7.25705 0
87.4115 6.69471 0
89.0235 7.90353 0
85.5421 0.780622 0
88.0409 8.13022 0
86.8504 8.03736 0
84.2666 1.01058 0
86.9377 8.55109 0
92.2485 -4.30575 0
89.5615 -0.241463 0
91.9891 -4.65812 0
90.7342 -5.09659 0
90.1599 -4.38673 0
88.65 -0.268242 0
90.9926 -5.68447 0
85.5978 7.86866 0
90.355 -6.99384 0
88.4065 -1.39838 0
90.0321 -6.76447 0
89.1653 -7.75263 0
83.0959 2.4989 0
88.7285 -7.62522 0
89.8963 -4.21082 0
89.2188 -6.90323 0
87.2985 -5.15388 0
86.2565 -0.849424 0
88.267 -7.0329 0
87.4725 -7.467 0
84.9854 8.29752 0
87.5445 -7.46603 0
87.1068 -0.460253 0
86.5047 -7.86195 0
86.0032 -8.56632 0
85.561 -0.577302 0
84.9048 -8.74756 0
85.3687 -6.44838 0
83.3452 -0.685469 0
83.9054 -8.91929 0
83.8399 -5.04156 0
85.5679 -3.91261 0
84.4041 -7.65522 0
83.2943 -8.05188 0
85.917 4.48418 0
82.1384 0.575713 0
85.2695 3.02483 0
83.8589 -0.0797825 0
82.7752 -8.72063 0
84.6049 7.89173 0
81.8545 0.421565 0
83.9905 6.76831 0
81.9022 -8.6153 0
83.4319 -1.80352 0
81.1201 -6.44734 0
84.049 8.96489 0
80.7332 2.27222 0
83.9536 8.90255 0
81.6473 7.56735 0
80.9954 0.462566 0
82.3284 7.89774 0
81.7344 -6.62647 0
82.9165 -0.50265 0
81.0411 -8.75703 0
81.0515 -8.54252 0
82.7074 8.43832 0
80.7521 8.1268 0
80.2785 0.0532677 0
81.8314 8.34054 0
79.8633 5.47911 0
80.321 2.57443 0
80.118 -8.73114 0
80.7714 -1.23003 0
80.446 -8.60747 0
79.6548 8.58436 0
79.4746 -8.03596 0
79.8695 -1.22956 0
79.5967 -3.79038 0
78.211 -7.75545 0
81.1168 -4.44513 0
78.0664 -7.51946 0
79.3564 -0.340546 0
77.1583 -7.19832 0
79.1065 3.22219 0
79.6258 0.531846 0
79.1951 7.3076 0
79.0436 0.143551 0
79.0249 8.47151 0
78.7186 7.99912 0
78.7457 0.22501 0
77.9365 7.07482 0
78.5698 0.172471 0
78.502 -6.78431 0
79.3536 -0.665435 0
79.7014 6.40678 0
77.8303 1.45399 0
77.4908 6.66539 0
77.0392 -7.15542 0
79.4717 -0.262944 0
75.4174 -6.13747 0
77.8637 -0.982385 0
76.2219 -6.07774 0
78.3951 2.87581 0
77.8531 0.260645 0
79.1816 -5.63313 0
77.8409 -0.258662 0
75.5288 -5.70958 0
76.8924 6.04587 0
76.8801 -4.60025 0
77.8415 -0.562045 0
75.8074 -4.93591 0
77.8114 3.48661 0
75.7183 2.17608 0
76.3844 5.26596 0
77.5466 -1.51105 0
75.6737 -5.42697 0
77.7638 0.879951 0
76.3466 6.96591 0
77.5629 -2.68597 0
77.8538 -0.178143 0
75.3363 -4.91085 0
76.0622 6.25739 0
77.7848 1.38121 0
75.9912 4.95057 0
75.7237 4.87841 0
77.7948 0.810516 0
74.9302 4.33723 0
74.4898 -4.39771 0
77.8172 -0.644197 0
74.1921 -4.38067 0
76.4669 -2.17499 0
77.8611 -0.431571 0
73.5682 -2.9867 0
75.0084 5.34972 0
77.6956 1.1694 0
76.1803 3.51561 0
74.1708 -2.72706 0
77.7382 -0.632682 0
73.5297 -2.47622 0
73.8905 3.94653 0
77.7604 0.543823 0
74.2834 3.73154 0
74.564 3.07122 0
77.87 0.0746876 0
73.7564 3.23531 0
74.8287 -1.62208 0
77.6485 -0.992986 0
74.1387 -1.41527 0
72.9886 -0.895911 0
76.9116 -1.11012 0
73.0409 -0.756733 0
76.6254 1.10663 0
77.8021 0.158864 0
75.801 2.64746 0
73.5405 2.60492 0
77.6287 0.11646 0
73.1115 1.64548 0
77.277 -0.346409 0
77.8389 -0.228787 0
73.0385 -0.247754 0
73.5492 -0.0947483 0
77.8403 -0.135396 0
75.6961 0.344509 0
73.7182 0.566683 0
77.8428 -0.126776 0
77.0978 -6.0147 0
77.8486 -0.992073 0
77.8091 0.28803 0
77.9587 7.22888 0
78.924 -8.04904 0
81.7624 -1.03406 0
80.1061 1.13843 0
81.6182 8.84506 0
77.7783 0.589043 0
74.4579 5.11619 0
73.9199 -3.0089 0
77.7392 -0.43955 0
77.7795 -1.24073 0
77.4211 -4.01833 0
77.8268 1.52278 0
77.964 0.435729 0
77.8344 0.00193069 0
73.6039 2.17281 0
78.9948 0.540981 0
78.1827 1.93604 0
78.4816 -1.64091 0
79.9086 -0.789824 0
85.6507 -1.29926 0
85.3837 -8.5773 0
87.286 8.14757 0
85.1689 0.485048 0
77.5633 2.06207 0
79.5654 8.29441 0
78.4639 -7.42484 0
78.9961 -2.63225 0
76.7307 -1.67293 0
74.5258 -0.241013 0
76.0943 6.14585 0
77.8836 2.25878 0
77.7338 -2.17868 0
74.7186 -4.8959 0
91.7347 -5.31621 0
88.3299 -0.660281 0
87.9005 0.789026 0
92.1725 4.3852 0
77.8227 -1.53168 0
77.8236 -0.0996771 0
77.7665 0.365176 0
78.6931 0.906203 0
82.8589 0.786645 0
82.5686 4.32055 0
80.9148 -2.21002 0
84.095 -1.8149 0
81.5055 5.2007 0
84.5481 8.44289 0
83.3868 -8.8528 0
82.3016 -2.06208 0
86.4375 1.64171 0
87.6097 5.07302 0
86.101 -2.84365 0
87.2445 -0.042235 0
90.5301 -0.218802 0
93.0016 -1.16998 0
92.8505 0.390818 0
89.6798 0.0254173 0
90.8776 0.00787286 0
92.3403 0.6311 0
92.1364 -0.612906 0
90.9491 0.00493467 0
78.7512 -1.6811 0
78.2531 -0.790771 0
78.1764 1.62522 0
78.8991 1.09884 0
78.0306 1.73266 0
77.839 0.55765 0
77.8306 -0.251234 0
77.958 -1.71996 0
89.3548 0.933019 0
90.6268 1.81119 0
89.6899 -1.10396 0
89.9054 -0.159849 0
75.8112 -1.03981 0
77.8706 -0.323143 0
77.3197 -0.693882 0
77.8437 -0.801495 0
77.8435 0.440354 0
77.7402 1.67017 0
91.5858 0.996178 0
90.8135 0.171443 0
90.8646 -0.0103876 0
91.3637 -1.06861 0
81.3713 -0.0477379 0
80.6495 -3.14452 0
81.7001 1.96028 0
80.3331 0.510258 0
77.6736 4.42051 0
77.2659 7.64372 0
76.9902 -6.6023 0
78.1029 -3.57642 0
78.5357 -2.40563 0
77.3391 -2.52937 0
77.7736 5.03576 0
78.0062 2.54369 0
90.9386 0.0127643 0
90.6155 0.120497 0
90.8458 -0.0292756 0
91.8492 0.173894 0
79.6169 -5.81166 0
80.6882 -5.60393 0
80.237 5.00818 0
80.9068 8.7774 0
78.9004 -4.39261 0
79.9814 -2.62037 0
79.8384 3.47547 0
78.9634 1.7601 0
90.9251 1.15429 0
90.3889 0.149743 0
90.5935 -0.014481 0
90.5197 -1.04835 0
77.1194 1.27965 0
77.8513 0.0580146 0
90.9206 -0.0753118 0
91.5478 -0.410015 0
91.2701 0.294765 0
90.8166 0.0454971 0
78.5755 -1.16252 0
78.144 -1.75476 0
78.8521 1.99454 0
78.0767 1.22862 0
77.864 -0.33703 0
77.9888 -1.29299 0
77.8413 0.747109 0
77.8194 0.310227 0
74.0203 1.82654 0
76.7761 1.71849 0
86.8799 -3.20815 0
90.3335 -6.33955 0
91.3044 5.76008 0
86.5789 2.31362 0
76.646 -2.53993 0
74.6371 -3.09858 0
89.6742 0.151809 0
89.9378 0.892826 0
88.7696 0.0683122 0
89.5045 0.84541 0
89.9466 -0.871434 0
89.8223 -0.137517 0
89.1869 -0.689385 0
89.1749 -0.00849629 0
90.7369 -0.233005 0
90.8718 -0.643467 0
90.7219 0.411624 0
90.4992 0.00934029 0
77.8738 0.377627 0
77.5746 0.956306 0
76.276 0.505244 0
74.1203 0.902102 0
77.7718 -0.495977 0
77.8324 -0.352228 0
77.217 0.378419 0
77.1242 -0.965297 0
92.8323 -2.60293 0
89.6168 -1.70827 0
90.6339 2.15135 0
92.9891 1.46581 0
77.8577 -0.138848 0
77.9773 -0.74227 0
77.8051 0.120726 0
78.1374 0.434488 0
90.2021 -0.208842 0
90.2101 -0.538148 0
90.2473 0.362787 0
89.8331 0.111427 0
88.4779 0.143608 0
88.7018 0.493659 0
88.6927 -0.578264 0
88.6073 -0.134141 0
78.2801 -1.26268 0
79.1098 -2.42347 0
78.5612 1.869 0
78.2354 1.59881 0
78.912 3.24166 0
77.3805 2.18129 0
77.9138 -2.27274 0
78.5472 -3.13307 0
91.2408 -0.460006 0
92.2468 0.373203 0
92.4201 -0.365346 0
91.6654 0.48302 0
77.5038 -1.62767 0
77.6097 -1.87212 0
77.6596 1.68945 0
77.1367 1.60662 0
88.4429 0.504717 0
88.0638 0.146477 0
88.1439 -0.0887444 0
88.3502 -0.418711 0
84.9837 4.39222 0
87.0872 7.21056 0
86.5967 -8.47875 0
86.0208 -3.42314 0
75.1154 -3.66333 0
77.375 -3.8557 0
84.5704 -3.16998 0
85.1925 -1.13433 0
83.5115 0.478349 0
86.9269 3.14874 0
74.7382 4.88879 0
76.5616 2.98329 0
89.4871 -0.0481001 0
89.645 -0.536794 0
89.5368 0.353242 0
89.445 0.0977126 0
88.7747 -0.36539 0
88.5566 -1.50685 0
89.1234 2.0641 0
88.1111 0.273766 0
82.8744 1.49147 0
81.0678 0.389861 0
82.2306 -0.360588 0
82.9608 -3.26945 0
91.2485 0.365015 0
91.5582 0.87762 0
91.7044 -0.946954 0
91.4981 -0.118151 0
81.9671 -4.09052 0
83.0175 -1.95002 0
82.2279 2.89321 0
84.9215 6.13669 0
87.8879 0.310695 0
87.719 0.057011 0
87.9754 -0.0880622 0
87.8569 -0.328835 0
88.7591 -0.170584 0
89.0145 -0.00359526 0
88.9797 0.0933654 0
88.6877 0.398055 0
79.5839 0.570523 0
79.3629 1.49412 0
79.6158 -1.32324 0
80.4546 -0.35884 0
81.1981 3.10373 0
79.5447 2.22685 0
78.9701 -3.1944 0
78.1844 -3.19242 0
90.5621 -0.437063 0
90.3007 -0.255696 0
90.1095 0.348217 0
91.0847 0.556125 0
79.611 4.23845 0
80.0493 2.89036 0
78.9847 -0.949742 0
78.8275 -0.336798 0
78.6998 0.318944 0
79.3486 1.02615 0
76.4017 -0.972401 0
77.3421 -1.7442 0
92.2004 -3.539 0
89.677 -2.03083 0
89.1625 3.739 0
92.5992 3.59669 0
77.7789 -1.59597 0
77.8982 -0.303513 0
77.7584 0.436549 0
77.8332 1.57667 0
78.0795 0.168296 0
78.0768 0.992829 0
78.2347 -0.536411 0
78.3653 -0.0349666 0
75.3218 -0.285809 0
73.0531 0.163857 0
84.9538 3.31818 0
89.0971 2.96144 0
87.7535 -2.53536 0
88.4065 -5.00127 0
77.3929 2.36351 0
76.9495 1.37247 0
77.8655 -0.0506029 0
77.5931 -0.0911707 0
80.2789 7.14915 0
78.1226 4.44615 0
79.8355 -4.69401 0
78.9822 -8.40131 0
77.2155 1.08861 0
77.7342 0.840634 0
90.7565 0.542422 0
91.0946 1.13392 0
90.8152 -1.04543 0
90.7243 -0.21919 0
88.1759 -0.107735 0
88.499 -0.0733662 0
88.4619 0.0627037 0
88.2676 0.365476 0
92.7567 0.315772 0
91.5781 1.27972 0
91.6537 -0.457865 0
92.8754 -0.56058 0
77.3548 0.162118 0
76.687 -1.95624 0
77.925 1.92302 0
78.1371 2.24798 0
78.3177 -2.4924 0
77.9858 -1.61125 0
77.858 0.146582 0
77.4901 0.597223 0
81.3119 -6.0097 0