# vtk DataFile Version 3.0
Unstructured Grid for Triangles
ASCII
DATASET UNSTRUCTURED_GRID
POINTS 29612 DOUBLE
-2.72397e-05 1.23686e-06 0
-2.95789e-05 9.5838e-07 0
-2.77865e-05 -3.1235e-07 0
0.0002024 5e-05 0
0.000203975 4.9875e-05 0
0.000205 5e-05 0
0.000203975 -4.9875e-05 0
0.0002024 -5e-05 0
0.000205 -5e-05 0
0.00020295 4.975e-05 0
0.00020295 -4.975e-05 0
0.000201925 4.9625e-05 0
0.000201925 -4.9625e-05 0
-5.29747e-05 -4.79887e-05 0
-5.5e-05 -5e-05 0
-5.24e-05 -5e-05 0
-5.05983e-05 -4.84325e-05 0
-4.98e-05 -5e-05 0
-4.72e-05 -5e-05 0
-4.83864e-05 -4.87761e-05 0
-4.46e-05 -5e-05 0
-4.59e-05 -4.84239e-05 0
-4.29453e-05 -4.24878e-05 0
-4.47486e-05 -4.20717e-05 0
-4.41829e-05 -4.36609e-05 0
-5.12578e-05 -4.62101e-05 0
-4.93077e-05 -4.53594e-05 0
-5.0706e-05 -4.39006e-05 0
-4.19243e-05 -4.77545e-05 0
-4.40307e-05 -4.71837e-05 0
-4.3691e-05 -4.86724e-05 0
-5.16129e-05 -4.20948e-05 0
-4.95355e-05 -4.15432e-05 0
-5.11646e-05 -4.0128e-05 0
-3.94697e-05 -4.81197e-05 0
-4.06302e-05 -4.55143e-05 0
-5.37257e-05 -3.88197e-05 0
-5.31099e-05 -4.07297e-05 0
-5.23982e-05 -3.88328e-05 0
-3.70063e-05 -4.72956e-05 0
-3.68e-05 -5e-05 0
-3.5308e-05 -4.85302e-05 0
-5.072e-05 -3.7867e-05 0
-4.85506e-05 -3.83975e-05 0
-4.90949e-05 -3.59622e-05 0
-3.37127e-05 -4.84331e-05 0
-3.16e-05 -5e-05 0
-3.26495e-05 -4.7415e-05 0
-5.5e-05 -3.5e-05 0
-5.31201e-05 -3.70361e-05 0
-5.28367e-05 -3.46817e-05 0
-3.63898e-05 -4.48809e-05 0
-3.83315e-05 -4.60336e-05 0
-3.26269e-06 -4.15503e-05 0
-5.99662e-06 -4.09556e-05 0
-5.46944e-06 -4.29488e-05 0
-5.29747e-05 4.79887e-05 0
-5.5e-05 5e-05 0
-5.5e-05 4.75e-05 0
-5.5e-05 4.5e-05 0
-5.34834e-05 4.29171e-05 0
-5.26943e-05 4.42611e-05 0
-5.34026e-05 4.60176e-05 0
-5.31099e-05 4.07297e-05 0
-5.11672e-05 4.01178e-05 0
-5.16129e-05 4.20948e-05 0
-5.24e-05 5e-05 0
-5.05983e-05 4.84325e-05 0
-5.31201e-05 3.70361e-05 0
-5.072e-05 3.7867e-05 0
-5.23982e-05 3.88328e-05 0
-4.8341e-05 4.69132e-05 0
-4.83679e-05 4.87539e-05 0
-5.28367e-05 3.46817e-05 0
-5.5e-05 3.25e-05 0
-5.25657e-05 3.28474e-05 0
-4.98e-05 5e-05 0
-5.30382e-05 3.125e-05 0
-4.19243e-05 4.77545e-05 0
-4.40015e-05 4.7335e-05 0
-4.25917e-05 4.63678e-05 0
-4.35138e-05 2.62661e-05 0
-4.14982e-05 2.74462e-05 0
-4.35654e-05 2.85217e-05 0
-4.59e-05 4.84239e-05 0
-4.36852e-05 4.87027e-05 0
-4.46e-05 5e-05 0
-5.33308e-05 2.92503e-05 0
-5.5e-05 2.75e-05 0
-5.23377e-05 2.76953e-05 0
-4.25282e-05 4.46352e-05 0
-4.09368e-05 4.35728e-05 0
-4.06302e-05 4.55143e-05 0
0.0002009 4.95e-05 0
0.0001998 5e-05 0
0.000199875 4.9375e-05 0
0.00019885 4.925e-05 0
0.0001972 5e-05 0
0.000197825 4.9125e-05 0
0.0001968 4.9e-05 0
0.000195775 4.8875e-05 0
0.0001946 5e-05 0
0.00019475 4.875e-05 0
0.000193725 4.8625e-05 0
0.000192 5e-05 0
0.0001927 4.85e-05 0
0.000191675 4.8375e-05 0
0.00019065 4.825e-05 0
0.0001894 5e-05 0
0.000189625 4.8125e-05 0
0.0001886 4.8e-05 0
0.0001868 5e-05 0
0.000187575 4.7875e-05 0
0.00018655 4.775e-05 0
0.000185515 4.8575e-05 0
0.0001842 5e-05 0
0.0001845 4.75e-05 0
0.000185525 4.7625e-05 0
0.000182564 4.829e-05 0
0.0001816 5e-05 0
0.00018245 4.725e-05 0
0.000183475 4.7375e-05 0
0.000181425 4.7125e-05 0
0.000180295 4.82657e-05 0
0.000179 5e-05 0
0.000179375 4.6875e-05 0
0.0001804 4.7e-05 0
0.000178168 4.80619e-05 0
0.0001764 5e-05 0
0.000177325 4.6625e-05 0
0.00017835 4.675e-05 0
0.000176428 4.76631e-05 0
0.0001763 4.65e-05 0
0.0001738 5e-05 0
0.0001751 4.84164e-05 0
0.000175275 4.6375e-05 0
0.000174025 4.75632e-05 0
0.0001712 5e-05 0
0.000172615 4.78449e-05 0
0.0001722 4.6e-05 0
0.000173225 4.6125e-05 0
0.00017015 4.575e-05 0
0.000171243 4.7381e-05 0
0.000169554 4.79999e-05 0
0.0001686 5e-05 0
0.000167507 4.79751e-05 0
0.000168498 4.64861e-05 0
0.000166 5e-05 0
0.00016558 4.71459e-05 0
0.000167135 4.62887e-05 0
0.0001681 4.55e-05 0
0.00016605 4.525e-05 0
0.000167075 4.5375e-05 0
0.000164059 4.61599e-05 0
0.00016394 4.79552e-05 0
0.000162881 4.6615e-05 0
0.000162975 4.4875e-05 0
0.000165025 4.5125e-05 0
0.000164 4.5e-05 0
0.000161754 4.58641e-05 0
0.000161722 4.78101e-05 0
0.000159956 4.58294e-05 0
0.000160925 4.4625e-05 0
0.00016195 4.475e-05 0
0.000157667 4.60322e-05 0
0.000158875 4.4375e-05 0
0.000159194 4.80155e-05 0
0.0001599 4.45e-05 0
0.00015785 4.425e-05 0
0.000155808 4.56757e-05 0
0.000155647 4.76701e-05 0
0.000154059 4.66642e-05 0
0.000153756 4.50083e-05 0
0.000154839 4.50446e-05 0
0.000156825 4.4125e-05 0
0.000151954 4.80508e-05 0
0.000154052 4.8477e-05 0
0.000153 5e-05 0
0.000154775 4.3875e-05 0
0.000152142 4.56625e-05 0
0.000152821 4.45753e-05 0
0.00015375 4.375e-05 0
0.0001504 5e-05 0
0.000149644 4.85168e-05 0
0.000151787 4.43178e-05 0
0.000152725 4.3625e-05 0
0.000150675 4.3375e-05 0
0.0001517 4.35e-05 0
0.000148119 4.50887e-05 0
0.000148072 4.75757e-05 0
0.000146584 4.63516e-05 0
0.000150008 4.6396e-05 0
0.000149351 4.4543e-05 0
0.00015061 4.46252e-05 0
0.0001476 4.3e-05 0
0.000148625 4.3125e-05 0
0.000146492 4.82975e-05 0
0.000144888 4.73562e-05 0
0.000146676 4.44259e-05 0
0.000145255 4.53656e-05 0
0.000145652 4.38669e-05 0
0.000141401 4.79821e-05 0
0.0001426 5e-05 0
0.00014 5e-05 0
0.000144374 4.38862e-05 0
0.00014555 4.275e-05 0
0.0001435 4.25e-05 0
0.000144525 4.2625e-05 0
0.000142746 4.38121e-05 0
0.000141288 4.43191e-05 0
0.000141707 4.32778e-05 0
0.00013921 4.38992e-05 0
0.000140355 4.5932e-05 0
0.000138302 4.5922e-05 0
0.000142912 4.58869e-05 0
0.000140592 4.30037e-05 0
0.00014145 4.225e-05 0
0.000136458 4.5869e-05 0
0.000137106 4.4063e-05 0
0.0001394 4.2e-05 0
0.000138259 4.28915e-05 0
0.000137484 4.77094e-05 0
0.000139166 4.78902e-05 0
0.00013586 4.78984e-05 0
0.000133449 4.78649e-05 0
0.000134717 4.61848e-05 0
0.000137256 4.25134e-05 0
0.000135323 4.24541e-05 0
0.000136325 4.1625e-05 0
0.000136122 4.2876e-05 0
0.000131206 4.47284e-05 0
0.000133168 4.56738e-05 0
0.000131773 4.65243e-05 0
0.000134756 4.40343e-05 0
0.000132747 4.36463e-05 0
0.000133483 4.26786e-05 0
0.000131081 4.1867e-05 0
0.000132382 4.22815e-05 0
0.000131507 4.3122e-05 0
0.000131059 4.80123e-05 0
0.00013325 4.125e-05 0
0.00012915 4.075e-05 0
0.00012982 4.18199e-05 0
0.000128915 4.26216e-05 0
0.000126366 4.47574e-05 0
0.000127331 4.30908e-05 0
0.000128781 4.44872e-05 0
0.000125336 4.28376e-05 0
0.000130218 4.31077e-05 0
0.000127894 4.16344e-05 0
0.000124774 4.69608e-05 0
0.000127668 4.64148e-05 0
0.000126591 4.8331e-05 0
0.000126722 4.18415e-05 0
0.000125768 4.11931e-05 0
0.000124326 4.13546e-05 0
0.00012505 4.025e-05 0
0.000122408 4.50118e-05 0
0.000120276 4.47432e-05 0
0.00012139 4.32235e-05 0
0.000124336 4.44132e-05 0
0.000123056 4.27595e-05 0
0.000122977 4.09049e-05 0
0.00012185 4.69217e-05 0
0.000122676 4.85947e-05 0
0.000120525 4.86094e-05 0
0.000121479 4.13153e-05 0
0.000119547 4.24221e-05 0
0.000120249 4.07448e-05 0
0.000119925 3.9625e-05 0
0.000119346 4.06114e-05 0
0.000117479 4.47279e-05 0
0.000114726 4.45259e-05 0
0.00011571 4.27814e-05 0
0.000119443 4.66611e-05 0
0.000117447 4.21596e-05 0
0.000118421 4.0752e-05 0
0.000117409 4.04437e-05 0
0.000116775 4.70073e-05 0
0.0001179 4.855e-05 0
0.000115473 4.84802e-05 0
0.00011685 3.925e-05 0
0.000117875 3.9375e-05 0
0.000115454 4.00551e-05 0
0.0001148 3.9e-05 0
0.000115825 3.9125e-05 0
0.000111704 4.23398e-05 0
0.000113786 4.26731e-05 0
0.000112589 4.43871e-05 0
0.000113234 4.06671e-05 0
0.000114754 4.13371e-05 0
0.0001106 4.42326e-05 0
0.000109703 4.24261e-05 0
0.00011275 3.875e-05 0
0.000113775 3.8875e-05 0
0.000110211 4.80875e-05 0
0.000108244 4.71951e-05 0
0.000109312 4.58413e-05 0
0.000111755 3.99116e-05 0
0.00010944 3.92972e-05 0
0.000110415 4.05876e-05 0
0.000108839 4.07536e-05 0
0.000106472 4.76905e-05 0
0.000107274 4.57868e-05 0
0.000108011 3.92415e-05 0
0.000106885 4.04365e-05 0
0.000106625 3.88708e-05 0
0.000105286 4.19254e-05 0
0.000105055 3.95469e-05 0
0.000104215 4.39764e-05 0
0.000106346 4.40629e-05 0
0.000100945 4.51249e-05 0
0.000102825 4.5614e-05 0
0.000101189 4.68452e-05 0
0.000107625 3.8125e-05 0
0.000105575 3.7875e-05 0
0.0001066 3.8e-05 0
0.000103352 4.76905e-05 0
0.000101803 4.8465e-05 0
0.000103685 3.89398e-05 0
0.00010245 3.8825e-05 0
0.000103525 3.7625e-05 0
0.000101092 3.99779e-05 0
0.000101267 3.82619e-05 0
0.000101382 4.2025e-05 0
0.000103187 4.05286e-05 0
0.000103359 4.24605e-05 0
9.87383e-05 4.5447e-05 0
9.99411e-05 4.35161e-05 0
9.744e-05 4.33145e-05 0
0.00010045 3.725e-05 0
0.000101475 3.7375e-05 0
9.70845e-05 4.65215e-05 0
9.52614e-05 4.67664e-05 0
9.61768e-05 4.49944e-05 0
9.9729e-05 3.87704e-05 0
9.78901e-05 3.9598e-05 0
9.85823e-05 3.81492e-05 0
9.62289e-05 3.93709e-05 0
9.74259e-05 3.81279e-05 0
9.7375e-05 3.6875e-05 0
9.63045e-05 3.76631e-05 0
9.58e-05 5e-05 0
9.32e-05 5e-05 0
9.47542e-05 4.8457e-05 0
9.49675e-05 3.85246e-05 0
9.36214e-05 3.89472e-05 0
9.40006e-05 3.74906e-05 0
9.66411e-05 4.12573e-05 0
9.44241e-05 4.07079e-05 0
9.03569e-05 4.24993e-05 0
9.21701e-05 4.02409e-05 0
9.27439e-05 4.27744e-05 0
8.89795e-05 4.09067e-05 0
9.03071e-05 4.0248e-05 0
9.25447e-05 3.77721e-05 0
9.3275e-05 3.6375e-05 0
9.07708e-05 3.87127e-05 0
9.11303e-05 3.70839e-05 0
9.11933e-05 4.55145e-05 0
9.30678e-05 4.73279e-05 0
9.11886e-05 4.82603e-05 0
8.87724e-05 3.88076e-05 0
8.99595e-05 3.75116e-05 0
9.02e-05 3.6e-05 0
8.89241e-05 3.6954e-05 0
8.36977e-05 4.59472e-05 0
8.36223e-05 4.83578e-05 0
8.20467e-05 4.74142e-05 0
8.71227e-05 4.03557e-05 0
8.61e-05 3.55e-05 0
8.68368e-05 3.65714e-05 0
8.5484e-05 3.6588e-05 0
8.47735e-05 4.02845e-05 0
8.23121e-05 4.21599e-05 0
8.26582e-05 3.98147e-05 0
8.46943e-05 4.2454e-05 0
8.38832e-05 3.78613e-05 0
8.35569e-05 3.63808e-05 0
8.44098e-05 3.6291e-05 0
8.5075e-05 3.5375e-05 0
8.51465e-05 4.77163e-05 0
8.3025e-05 3.5125e-05 0
8.22824e-05 3.68659e-05 0
8.1446e-05 3.57362e-05 0
8.05884e-05 3.71794e-05 0
7.53471e-05 4.77524e-05 0
7.38313e-05 4.73927e-05 0
7.39102e-05 4.61526e-05 0
7.9826e-05 3.58588e-05 0
7.88607e-05 3.76287e-05 0
7.81733e-05 3.57987e-05 0
8.16783e-05 3.84471e-05 0
8.07975e-05 4.04095e-05 0
7.52138e-05 4.04775e-05 0
7.67682e-05 4.17043e-05 0
7.49617e-05 4.21803e-05 0
7.52903e-05 3.84008e-05 0
7.38293e-05 3.93136e-05 0
[...]
CELL_DATA 58684
VECTORS velocity DOUBLE
74.0744 0.337166 0
85.5776 -0.000166835 0
85.5507 0.000157308 0
85.5823 -0.0018594 0
85.5544 0.00194792 0
85.5883 -0.00214986 0
85.5605 0.00223351 0
77.8664 -0.00253528 0
77.8748 -0.0237079 0
77.9597 -0.00372815 0
78.0577 -0.0065366 0
78.1102 -0.407753 0
77.8987 -0.109757 0
78.1851 -0.134377 0
77.8808 -0.18535 0
78.3668 -0.171676 0
77.8665 -0.111792 0
78.7008 -0.15689 0
77.9202 -0.317273 0
79.1851 -0.113358 0
77.8804 -0.114099 0
78.674 -0.368079 0
85.048 -2.17222 0
77.8571 0.0118112 0
77.8553 0.0513309 0
77.8569 0.0249487 0
77.8817 0.14102 0
77.8744 0.0226948 0
77.8798 0.188392 0
77.9584 0.0492277 0
77.8768 0.144724 0
77.92 0.0323455 0
77.8385 0.144636 0
78.2506 0.163295 0
77.9669 1.13041 0
78.1182 0.0677188 0
77.8893 0.17703 0
78.3206 0.35448 0
85.595 0.000569432 0
85.5996 -0.000360729 0
85.609 -0.00535559 0
85.6123 -0.00264465 0
85.6214 -0.000823191 0
85.6294 -0.00525883 0
85.6326 -0.00662129 0
85.6365 -0.00273512 0
85.6441 -0.000561011 0
85.6509 -0.00731373 0
85.653 -0.00494133 0
85.6616 -0.00133859 0
85.6698 -0.00828618 0
85.6719 -0.00848974 0
85.6749 -0.0044218 0
85.6825 -0.0010252 0
85.6888 -0.00920457 0
85.6902 -0.00698754 0
85.6987 -0.00208469 0
85.7074 -0.0113453 0
85.7093 -0.0110243 0
85.7118 -0.00591476 0
85.7218 -0.000745031 0
85.7239 -0.0127676 0
85.7327 -0.00885518 0
85.744 -0.000632883 0
85.745 -0.0158192 0
85.7482 -0.0129627 0
85.7558 -0.0109589 0
85.7635 -0.00110408 0
85.7656 -0.0155254 0
85.773 -0.0115939 0
85.7829 -0.00201515 0
85.784 -0.0177123 0
85.7899 -0.0128811 0
85.7979 -0.021353 0
85.8075 -0.000970312 0
85.8102 -0.0162372 0
85.8164 -0.0105363 0
85.8299 -0.00187241 0
85.832 -0.0220499 0
85.8549 -0.0182853 0
85.836 -0.0176714 0
85.8568 -0.00104928 0
85.8659 -0.0118181 0
85.8593 -0.0229753 0
85.891 -0.0141123 0
85.8848 -0.0186897 0
85.8807 -0.025974 0
85.8935 -0.0310746 0
85.9184 -0.0200461 0
85.9331 -0.0282892 0
85.9081 -0.0239386 0
85.9255 -0.0345557 0
85.9467 -0.0264796 0
85.9416 -0.0269448 0
85.9506 -0.0369215 0
85.9854 -0.0349935 0
85.9681 -0.0300079 0
85.9749 -0.0392191 0
85.9949 -0.0459144 0
86.0035 -0.0349383 0
86.0314 -0.0419448 0
86.0055 -0.0362835 0
86.0355 -0.0121493 0
86.035 -0.0465957 0
86.0572 -0.0444035 0
86.0475 -0.0476409 0
86.0625 -0.0143004 0
86.0636 -0.0511181 0
86.0813 -0.0560849 0
86.106 -0.0322323 0
86.1011 -0.0346727 0
86.0845 -0.0471056 0
86.1211 -0.0608791 0
86.1232 -0.0251367 0
86.1539 -0.0560577 0
86.1411 -0.0363427 0
86.1834 -0.00258012 0
86.1648 -0.0635966 0
86.1814 -0.071781 0
86.217 -0.0642487 0
86.241 -0.0485774 0
86.1921 -0.0389848 0
86.2267 -0.0734944 0
86.2698 -0.0496477 0
86.2612 -0.0772628 0
86.2379 -0.0269532 0
86.2755 -0.0700041 0
86.2966 -0.0259937 0
86.2899 -0.0816302 0
86.3197 -0.0941532 0
86.3616 -0.0562673 0
86.351 -0.077676 0
86.3257 -0.0360519 0
86.3941 -0.102252 0
86.34 -0.0287906 0
86.3703 -0.101361 0
86.4431 -0.114685 0
86.4604 -0.0806816 0
86.4793 -0.0996175 0
86.4318 -0.0964097 0
86.462 -0.105309 0
86.4325 -0.0464808 0
86.5097 -0.122126 0
86.5368 -0.134178 0
86.5775 -0.0887708 0
86.4941 -0.064206 0
86.5343 -0.115038 0
86.5569 -0.136766 0
86.5223 -0.0269577 0
86.6323 -0.147335 0
86.6453 -0.16274 0
86.6969 -0.100419 0
86.6025 -0.0880528 0
86.6633 -0.136164 0
86.6861 -0.164555 0
86.6295 -0.028798 0
86.705 -0.189932 0
86.7594 -0.204279 0
86.7811 -0.145521 0
86.7735 -0.167299 0
86.8336 -0.155194 0
86.8062 -0.212388 0
86.8175 -0.055686 0
86.8177 -0.199514 0
86.899 -0.205391 0
86.8787 -0.0677631 0
86.9718 -0.24555 0
87.003 -0.227325 0
86.9846 -0.143674 0
87.0588 -0.111575 0
86.9747 -0.250611 0
87.0151 -0.276682 0
87.0285 -0.0567013 0
87.0965 -0.282086 0
87.1513 -0.291173 0
87.0684 -0.208921 0
87.1423 -0.131761 0
87.1842 -0.174762 0
87.1831 -0.332612 0
87.2385 -0.114315 0
87.2569 -0.311428 0
87.293 -0.306559 0
87.3178 -0.358683 0
87.2775 -0.00424834 0
87.4284 -0.359066 0
87.3075 -0.276739 0
87.4427 -0.251295 0
87.5182 -0.294215 0
87.48 -0.398193 0
87.5438 -0.403131 0
87.405 -0.0905958 0
87.5865 -0.391862 0
87.6139 -0.452722 0
87.6295 -0.435833 0
87.7445 -0.101816 0
87.6162 -0.347018 0
87.7951 -0.502324 0
87.8567 -0.382608 0
87.7736 -0.322143 0
87.862 -0.532415 0
87.8434 -0.524488 0
87.73 -0.0906469 0
87.9578 -0.585697 0
87.9982 -0.549391 0
88.2045 -0.104945 0
88.1067 -0.60499 0
87.9417 -0.42142 0
88.2187 -0.386321 0
88.2855 -0.499136 0
88.1675 -0.549353 0
88.1918 -0.655164 0
88.2666 -0.23718 0
88.3802 -0.631682 0
88.3289 -0.729535 0
88.5345 -0.739963 0
88.5026 -0.0102453 0
88.4882 -0.61128 0
88.549 -0.766407 0
88.3879 -0.189975 0
88.6173 -0.807232 0
88.7228 -0.463628 0
88.6656 -0.844463 0
88.9031 -0.259222 0
88.8527 -0.724805 0
88.8137 -0.855371 0
88.7601 -0.132279 0
88.9648 -0.882351 0
89.162 -0.859452 0
88.9995 -0.734771 0
89.0511 -0.441311 0
89.1959 -0.989287 0
89.2176 -0.386669 0
89.3941 -0.0666785 0
89.1421 -0.776695 0
89.3226 -0.977796 0
89.4149 -1.05188 0
89.4593 -0.327958 0
89.5749 -0.904923 0
89.7411 -0.989916 0
89.5477 -0.112275 0
89.9005 -0.961201 0
89.8056 -1.07631 0
89.6627 -0.798039 0
89.736 -0.384263 0
89.8561 -0.448366 0
89.9734 -1.08031 0
89.9277 -0.00569617 0
90.087 -1.1528 0
90.2325 -1.0906 0
90.185 -1.1501 0
90.1845 -0.248701 0
90.3068 -0.935151 0
90.5728 -0.942979 0
90.1629 -0.00378514 0
90.6649 -1.12293 0
90.8585 -0.949833 0
90.4882 -0.689312 0
90.3201 -0.283973 0
90.8504 -1.07484 0
90.4889 -0.35042 0
90.3198 -0.015609 0
90.7861 -0.718838 0
91.1298 -0.971488 0
91.3051 -0.903292 0
90.4972 -0.0703409 0
91.2634 -0.610581 0
91.3998 -0.804481 0
90.3737 0.0340167 0
91.547 -0.789743 0
91.7446 -0.653847 0
91.3643 -0.21863 0
90.1475 0.0109505 0
91.9117 -0.421698 0
91.0506 0.214933 0
91.2894 0.32699 0
91.7857 -0.269283 0
91.5639 -0.0067554 0
92.2584 -0.0220866 0
90.2785 0.382831 0
92.2409 -0.126918 0
91.7969 0.448638 0
92.4564 0.530215 0
90.1905 0.112051 0
92.4199 1.24022 0
92.1935 1.47172 0
88.8503 0.199669 0
92.6447 0.931619 0
92.5493 1.41333 0
90.2023 1.50205 0
89.9453 0.717871 0
91.4782 1.14665 0
92.4509 1.95055 0
89.101 0.333963 0
91.9608 2.84411 0
92.6305 2.19696 0
92.6444 2.42555 0
88.3533 1.42755 0
90.9899 2.96527 0
92.0196 3.23443 0
88.3329 0.236142 0
91.8346 3.73791 0
91.4892 3.60895 0
90.5294 5.23533 0
86.0773 0.397778 0
91.6591 4.94159 0
89.6758 3.56186 0
87.8166 1.57689 0
87.4386 3.00239 0
91.4268 5.44776 0
90.2989 5.88752 0
86.5148 0.612247 0
90.3681 6.71586 0
85.567 -0.00025678 0
85.5719 0.00030765 0
85.5804 0.00480567 0
85.5835 0.00211536 0
85.5919 0.000822985 0
85.5995 0.00498228 0
85.6024 0.0056432 0
85.6065 0.00210123 0
85.6136 0.000616249 0
85.6202 0.00695464 0
85.6222 0.00462017 0
85.6303 0.0013098 0
85.6381 0.0077524 0
85.6401 0.00805695 0
85.6431 0.0041925 0
85.6506 0.00100952 0
85.6566 0.00898669 0
85.6583 0.00666294 0
85.6667 0.00206579 0
85.6752 0.0112592 0
85.6772 0.0108656 0
85.6885 0.0137427 0
85.6797 0.00577934 0
85.6968 0.00905753 0
85.7091 0.0141633 0
85.7004 0.00898559 0
85.7162 0.0133017 0
85.7239 0.0111296 0
85.7311 0.0175986 0
85.7205 0.00892858 0
85.741 0.0117634 0
85.7494 0.019628 0
85.7411 0.00942433 0
85.7664 0.0223188 0
85.7699 0.0198714 0
85.776 0.0156377 0
85.7623 0.0116926 0
85.779 0.0166924 0
85.7966 0.0159815 0
85.7853 0.0108265 0
85.8133 0.0272452 0
85.8135 0.0104525 0
85.8247 0.0185902 0
85.8092 0.0143108 0
85.8292 0.023338 0
85.8512 0.026406 0
85.8611 0.0144697 0
85.8482 0.0243567 0
85.8706 0.0288646 0
85.8741 0.0312722 0
85.8996 0.0159831 0
85.8892 0.0202882 0
85.9037 0.0285704 0
85.9188 0.0402673 0
85.9284 0.0193239 0
85.933 0.0322718 0
85.9427 0.0423136 0
85.9594 0.0250975 0
85.9387 0.0301349 0
85.9668 0.0470133 0
85.9698 0.0445242 0
85.9808 0.0285637 0
85.9931 0.0204311 0
86.0032 0.0417673 0
85.942 0.0140531 0
86.0194 0.0481938 0
86.0535 0.0571487 0
86.0364 0.0485089 0
86.0216 0.0292027 0
86.0674 0.0576443 0
86.075 0.0510709 0
86.0974 0.025411 0
86.0579 0.0479665 0
86.101 0.053844 0
86.1188 0.0625649 0
86.067 0.0152587 0
86.1075 0.0447528 0
86.1562 0.0722448 0
86.1174 0.0370001 0
86.1683 0.0640774 0
86.2006 0.0768685 0
86.1759 0.0566008 0
86.1966 0.0230742 0
86.212 0.0672303 0
86.2306 0.0789256 0
86.213 0.0205552 0
86.2564 0.0869351 0
86.2227 0.0628445 0
86.2821 0.0724001 0
86.2403 0.0492907 0
86.2928 0.0944413 0
86.3569 0.114508 0
86.316 0.0285541 0
86.3137 0.0783783 0
86.3841 0.121771 0
86.3617 0.0862557 0
86.3025 0.0351728 0
86.4016 0.11298 0
86.4265 0.119675 0
86.3869 0.0294654 0
86.4344 0.0536335 0
86.4627 0.104712 0
86.4798 0.139523 0
86.4078 0.0743137 0
86.5128 0.135707 0
86.5358 0.145698 0
86.5425 0.0493842 0
86.516 0.0899328 0
86.5885 0.163595 0
86.5835 0.139621 0
86.4808 0.0466742 0
86.6101 0.157001 0
86.6626 0.168153 0
86.6391 0.066824 0
86.6265 0.144097 0
86.7238 0.201904 0
86.7113 0.154453 0
86.5807 0.0492873 0
86.7499 0.188456 0
86.8239 0.231383 0
86.7031 0.0663833 0
86.8114 0.183728 0
86.7909 0.0853654 0
86.8573 0.193897 0
86.767 0.109324 0
86.8885 0.245614 0
86.9507 0.246496 0
86.8554 0.0681081 0
86.9414 0.241254 0
87.024 0.279257 0
86.9852 0.0711591 0
86.9097 0.203306 0
87.0171 0.239352 0
87.0765 0.2834 0
86.9555 0.0435182 0
87.0908 0.258626 0
87.1983 0.337124 0
87.1799 0.283104 0
87.1157 0.0852744 0
87.2596 0.296772 0
87.0636 0.108726 0
87.0938 0.249344 0
87.247 0.327978 0
87.3631 0.372494 0
87.3748 0.382216 0
87.0841 0.00580397 0
87.4795 0.436034 0
87.4931 0.42402 0
87.524 0.376342 0
87.4585 0.184483 0
87.5727 0.20053 0
87.5375 0.420718 0
87.2964 0.114069 0
87.6688 0.474306 0
87.6602 0.466733 0
87.6705 0.419936 0
87.5597 0.122086 0
87.7576 0.467094 0
87.8889 0.584247 0
87.746 0.21902 0
87.6841 0.231433 0
87.8499 0.473344 0
88.024 0.607554 0
87.5975 0.14323 0
88.0659 0.643183 0
88.1097 0.625222 0
87.9209 0.122434 0
88.2613 0.71739 0
88.2979 0.687668 0
88.3785 0.593831 0
88.1477 0.260407 0
88.1104 0.294718 0
88.2841 0.665139 0
88.0056 0.189862 0
88.4613 0.794274 0
88.5204 0.748677 0
88.5258 0.691448 0
88.2482 0.104687 0
88.7088 0.814388 0
88.7296 0.832618 0
88.5637 0.467194 0
88.8381 0.655732 0
88.5855 0.378779 0
88.791 0.798259 0
88.4639 0.240453 0
88.9606 0.92978 0
88.9893 0.898049 0
88.511 0.192611 0
89.0698 0.828181 0
89.2659 0.953684 0
89.1713 0.932262 0
89.061 0.217245 0
89.492 0.996745 0
89.54 1.06531 0
89.0027 0.644639 0
89.4344 0.789427 0
89.0736 0.39279 0
89.7517 1.12036 0
89.2732 0.122017 0
89.8221 1.08716 0
89.8196 1.02841 0
89.0757 0.0967072 0
89.7522 0.932099 0
90.1673 1.09883 0
90.2677 1.10765 0
89.709 0.279881 0
90.3494 1.07905 0
90.4016 1.15147 0
89.6739 0.702975 0
90.422 0.755131 0
89.8853 0.27002 0
90.5807 1.14708 0
89.9191 0.0994054 0
90.7399 1.06739 0
90.8371 1.04973 0
89.7304 0.0716742 0
90.6555 0.86838 0
91.1494 0.973035 0
91.3232 0.906012 0
90.2068 0.173659 0
91.1526 0.847603 0
91.4734 0.853255 0
90.7558 0.737143 0
91.2676 0.416045 0
90.3069 0.10683 0
91.2324 0.763598 0
90.3341 0.0383659 0
91.7354 0.741079 0
91.8289 0.589473 0
90.2161 0.0388805 0
91.5335 0.277621 0
91.9932 0.298174 0
92.1914 0.159331 0
90.3717 -0.101597 0
92.2884 -0.049464 0
92.3392 -0.18755 0
90.532 -0.28126 0
92.3563 -0.219799 0
91.557 -0.665411 0
90.7871 -0.103018 0
90.5845 -0.00576682 0
92.5007 -0.517428 0
92.2633 -0.915022 0
92.7014 -1.09868 0
90.2631 -0.00744218 0
91.9828 -1.36556 0
92.7108 -1.84206 0
90.236 -0.128572 0
91.8114 -1.33066 0
92.6913 -2.38643 0
91.265 -1.79818 0
90.2267 -0.670952 0
92.502 -2.73626 0
92.3649 -3.02954 0
91.2074 -1.14082 0
90.6827 -3.18159 0
88.6669 -2.61454 0
92.0081 -3.06152 0
89.0581 -0.412884 0
91.9969 -4.01928 0
89.4497 7.31088 0
90.1754 6.54133 0
84.8329 1.93026 0
89.348 7.26566 0
87.1283 6.64154 0
88.6915 7.89487 0
85.4138 0.75956 0
87.7192 8.09349 0
86.5585 7.96044 0
84.1823 0.963012 0
86.6288 8.48793 0
91.9099 -4.43765 0
89.2935 -0.255168 0
91.6461 -4.78219 0
90.4159 -5.17298 0
89.8613 -4.45438 0
88.4248 -0.271778 0
90.6556 -5.76609 0
85.3442 7.74881 0
90.0083 -7.03972 0
88.1847 -1.40966 0
89.6883 -6.80349 0
88.8299 -7.76472 0
83.044 2.36575 0
88.3967 -7.61763 0
89.599 -4.26387 0
88.8867 -6.90591 0
87.0413 -5.1079 0
86.1041 -0.841345 0
87.9554 -7.00818 0
87.1705 -7.41434 0
84.7222 8.17589 0
87.2403 -7.42753 0
86.9282 -0.457217 0
86.2199 -7.77366 0
85.708 -8.47842 0
85.4342 -0.565971 0
84.6287 -8.61741 0
85.1368 -6.32848 0
83.2975 -0.655498 0
83.6222 -8.76691 0
83.71 -4.86205 0
85.4006 -3.8354 0
84.1694 -7.50785 0
83.0698 -7.85415 0
85.7117 4.39981 0
82.1534 0.530285 0
85.1264 2.94135 0
83.8004 -0.0754723 0
82.5234 -8.51824 0
84.3513 7.74295 0
81.8865 0.384531 0
83.7901 6.58523 0
81.667 -8.38024 0
83.3763 -1.71528 0
80.9816 -6.11551 0
83.7733 8.82267 0
80.791 2.02177 0
83.6731 8.74694 0
81.4889 7.28749 0
81.0757 0.411855 0
82.1072 7.66654 0
81.5798 -6.36632 0
82.898 -0.472971 0
80.8217 -8.50726 0
80.8417 -8.27341 0
82.4748 8.23422 0
80.575 7.84494 0
80.4003 0.0424482 0
81.6218 8.10197 0
79.8056 5.07177 0
80.3939 2.28337 0
79.9069 -8.45284 0
80.8585 -1.09538 0
80.2395 -8.3281 0
79.4497 8.29523 0
79.2925 -7.72188 0
80.0071 -1.07537 0
79.6276 -3.39313 0
78.0436 -7.41473 0
81.0689 -4.10261 0
77.9056 -7.17107 0
79.5191 -0.290524 0
76.9978 -6.84992 0
79.1806 2.86 0
79.7839 0.460751 0
79.035 6.96481 0
79.1923 0.117451 0
78.8225 8.17195 0
78.544 7.66697 0
78.8836 0.185628 0
77.7968 6.70893 0
78.6729 0.133607 0
78.3836 -6.41026 0
79.5161 -0.574689 0
79.602 6.03606 0
77.8768 0.734147 0
77.3556 6.29896 0
76.8858 -6.81004 0
79.6285 -0.229376 0
75.2691 -5.82299 0
77.8683 -0.440499 0
76.0907 -5.73105 0
78.4685 2.54508 0
77.8539 0.12064 0
79.1081 -5.21589 0
77.8554 -0.112806 0
75.398 -5.39526 0
76.7716 5.68281 0
76.8099 -4.25681 0
77.8673 -0.241484 0
75.7088 -4.62029 0
77.8253 3.13626 0
75.6877 1.98926 0
76.2809 4.91295 0
77.6015 -0.982739 0
75.5478 -5.12018 0
77.8047 0.402182 0
76.1866 6.63088 0
77.6127 -2.37276 0
77.8561 -0.0839786 0
75.2228 -4.61927 0
75.922 5.92348 0
77.8129 0.715783 0
75.8906 4.62904 0
75.61 4.56856 0
77.7978 0.381171 0
74.819 4.06891 0
74.3671 -4.1473 0
77.8324 -0.29421 0
74.0662 -4.14083 0
76.4727 -1.97164 0
77.8488 -0.199954 0
73.4482 -2.82168 0
74.8719 5.06226 0
77.7345 0.61897 0
76.1357 3.2426 0
74.0612 -2.56242 0
77.7368 -0.311767 0
73.4127 -2.33453 0
73.7636 3.72396 0
77.7459 0.26415 0
74.1676 3.50847 0
74.4718 2.86155 0
77.8537 0.0344031 0
73.6336 3.04872 0
74.7677 -1.50832 0
77.6733 -0.539036 0
74.0537 -1.32975 0
72.8713 -0.846459 0
76.9845 -0.921446 0
72.9221 -0.717025 0
76.6826 0.95769 0
77.7822 0.0789464 0
75.7525 2.4274 0
73.4149 2.45489 0
77.639 0.059177 0
72.9928 1.55092 0
77.3456 -0.234836 0
77.8371 -0.11239 0
72.9208 -0.235569 0
73.4491 -0.0922113 0
77.8032 -0.0657974 0
75.6826 0.306532 0
73.6159 0.525198 0
77.819 -0.0618358 0
76.9932 -5.64515 0
77.8979 -0.431691 0
77.8401 0.133301 0
77.8075 6.87012 0
78.7363 -7.72644 0
81.7942 -0.943898 0
80.2324 0.995453 0
81.383 8.60672 0
77.7845 0.279659 0
74.3208 4.84337 0
73.8117 -2.83075 0
77.8013 -0.202182 0
77.8452 -0.57275 0
77.396 -3.66129 0
77.899 0.800351 0
77.8995 0.198272 0
77.7933 -0.000311853 0
73.4884 2.04906 0
79.1498 0.465235 0
78.2756 1.57253 0
78.5909 -1.37181 0
80.0518 -0.689618 0
85.5234 -1.27344 0
85.1019 -8.46461 0
86.9795 8.08596 0
85.0648 0.469516 0
77.6484 1.66039 0
79.3687 7.98888 0
78.3147 -7.06884 0
79.086 -2.31116 0
76.7897 -1.45683 0
74.4542 -0.219807 0
75.9601 5.81778 0
77.9613 1.88643 0
77.8035 -1.7865 0
74.593 -4.62414 0
91.3974 -5.42074 0
88.1142 -0.664869 0
87.6987 0.795341 0
91.8342 4.52218 0
77.8938 -0.813768 0
77.8718 -0.0438356 0
77.8573 0.148479 0
78.8148 0.755105 0
82.8398 0.737693 0
82.4696 4.10517 0
80.9702 -1.98801 0
84.0133 -1.74699 0
81.3986 4.89338 0
84.2845 8.30657 0
83.1221 -8.68171 0
82.2864 -1.91935 0
86.2819 1.61477 0
87.3607 5.0403 0
85.9348 -2.7966 0
87.066 -0.043696 0
90.1874 -0.256494 0
92.6662 -1.34907 0
92.491 0.542188 0
89.4018 0.0301742 0
90.3066 0.00164236 0
91.8737 0.570112 0
91.6463 -0.556435 0
90.4754 0.0414885 0
78.8716 -1.44449 0
78.3521 -0.572493 0
78.2606 1.23514 0
79.0371 0.947645 0
78.1113 1.22314 0
77.8665 0.239046 0
77.8525 -0.107268 0
78.0453 -1.1238 0
89.1072 0.962352 0
90.3371 1.9034 0
89.4248 -1.15736 0
89.6162 -0.173204 0
75.8181 -0.9578 0
77.8212 -0.154959 0
77.3913 -0.439058 0
77.8329 -0.372707 0
77.8365 0.205673 0
77.801 0.9662 0
90.9177 0.993473 0
90.065 0.155631 0
90.2464 -0.00304321 0
90.625 -1.07636 0
81.4293 -0.0413357 0
80.6784 -2.82252 0
81.7205 1.80404 0
80.4541 0.448122 0
77.642 4.03609 0
77.0931 7.3058 0
76.8558 -6.24884 0
78.1234 -3.21983 0
78.6336 -2.10651 0
77.3935 -2.22661 0
77.7212 4.63044 0
78.0746 2.22149 0
90.4854 0.0527686 0
90.2348 0.144923 0
90.4014 -0.0518077 0
91.375 0.0868868 0
79.5177 -5.41707 0
80.5891 -5.25617 0
80.1908 4.63613 0
80.6872 8.52589 0
78.8851 -3.97445 0
80.0502 -2.31218 0
79.8804 3.11516 0
79.0908 1.53357 0
90.094 1.1695 0
89.5235 0.142804 0
89.7875 -0.0100165 0
89.6434 -1.04989 0
77.2009 1.01106 0
77.8312 0.0304462 0
90.3157 -0.0564267 0
90.9741 -0.351238 0
90.6791 0.245752 0
90.1281 0.0381397 0
78.6896 -0.954233 0
78.2351 -1.32905 0
78.9748 1.73912 0
78.1379 0.735303 0
77.8776 -0.146315 0
78.0703 -0.696458 0
77.9205 0.314889 0
77.8536 0.136254 0
73.9287 1.71 0
76.8205 1.5209 0
86.6879 -3.16162 0
90.0013 -6.38403 0
90.9552 5.84191 0
86.3996 2.28305 0
76.6472 -2.30594 0
74.5578 -2.89279 0
88.7825 0.159158 0
89.0606 0.896142 0
88.0151 0.0754464 0
88.6723 0.853147 0
89.0751 -0.874081 0
88.925 -0.142411 0
88.4103 -0.71113 0
88.3456 -0.0130684 0
89.9631 -0.217578 0
90.066 -0.628622 0
89.9142 0.395755 0
89.6614 0.00666239 0
77.8366 0.179591 0
77.6152 0.536978 0
76.3202 0.452306 0
74.0252 0.844 0
77.7489 -0.247772 0
77.8235 -0.170022 0
77.2894 0.275002 0
77.2051 -0.746806 0
92.5017 -2.79041 0
89.3573 -1.76624 0
90.337 2.24604 0
92.6536 1.65027 0
77.9714 -0.0639688 0
78.0552 -0.365921 0
77.8738 0.0513235 0
78.2162 0.260271 0
89.3091 -0.208195 0
89.3192 -0.541067 0
89.3561 0.361909 0
88.9329 0.116223 0
87.805 0.167031 0
87.9984 0.532838 0
88.0109 -0.621873 0
87.9081 -0.150792 0
78.3596 -0.89729 0
79.2131 -2.12901 0
78.6794 1.60981 0
78.3318 1.27077 0
78.9716 2.87556 0
77.452 1.84664 0
77.9937 -1.91893 0
78.6105 -2.78662 0
90.8632 -0.54845 0
91.8038 0.287082 0
91.9766 -0.278523 0
91.2868 0.591288 0
77.5953 -1.14459 0
77.7047 -1.36124 0
77.7449 1.07926 0
77.2218 1.302 0
87.8007 0.549838 0
87.4917 0.163478 0
87.5602 -0.102432 0
87.734 -0.467943 0
84.8223 4.27179 0
86.7984 7.14142 0
86.2897 -8.40652 0
85.8519 -3.35274 0
75.0322 -3.41504 0
77.3661 -3.50655 0
84.4514 -3.06468 0
85.0808 -1.0986 0
83.4681 0.453362 0
86.7284 3.11867 0
74.6105 4.61388 0
76.5574 2.72602 0
88.612 -0.0515535 0
88.7851 -0.552322 0
88.6658 0.366525 0
88.5721 0.100784 0
88.5407 -0.372201 0
88.329 -1.52481 0
88.8796 2.10377 0
87.9073 0.274132 0
82.8511 1.39569 0
81.149 0.35019 0
82.2439 -0.335187 0
82.883 -3.11134 0
90.6338 0.320849 0
90.909 0.859507 0
91.0722 -0.936275 0
90.9952 -0.0477476 0
81.8947 -3.82942 0
82.9735 -1.83804 0
82.2059 2.70944 0
84.7058 5.99057 0
87.3517 0.330915 0
87.2229 0.0625419 0
87.4227 -0.100482 0
87.3319 -0.343915 0
88.0268 -0.187328 0
88.2161 -0.00799263 0
88.1848 0.103168 0
87.9835 0.437256 0
79.736 0.495687 0
79.5002 1.30066 0
79.7493 -1.14589 0
80.5662 -0.317047 0
81.2084 2.82301 0
79.6478 1.94627 0
79.0342 -2.82992 0
78.2302 -2.85399 0
90.228 -0.490701 0
89.9786 -0.282812 0
89.8066 0.381081 0
90.7315 0.640573 0
79.6126 3.84038 0
80.1243 2.56456 0
79.1357 -0.822274 0
78.9766 -0.291857 0
78.8277 0.264634 0
79.5048 0.887805 0
76.4392 -0.871181 0
77.4301 -1.34345 0
91.8733 -3.69291 0
89.413 -2.08658 0
88.8866 3.77465 0
92.2617 3.75881 0
77.8316 -0.86416 0
77.8743 -0.141177 0
77.8098 0.199783 0
77.9049 0.842666 0
78.1537 0.0875676 0
78.1695 0.623236 0
78.311 -0.344013 0
78.4475 -0.0206473 0
75.2765 -0.267083 0
72.9371 0.151113 0
84.8246 3.2252 0
88.8385 2.99373 0
87.5458 -2.52443 0
88.1464 -4.99262 0
77.4556 2.06049 0
77.032 1.14692 0
77.8544 -0.0248233 0
77.6111 -0.0489146 0
80.1234 6.8242 0
78.0993 4.04718 0
79.8011 -4.29186 0
78.7854 -8.08974 0
77.2923 0.783917 0
77.736 0.42403 0
89.9481 0.526525 0
90.2989 1.14881 0
89.9758 -1.05025 0
89.9367 -0.203887 0
87.5792 -0.122052 0
87.8198 -0.0825854 0
87.7883 0.0706398 0
87.6558 0.40548 0
92.3883 0.457122 0
91.2533 1.40558 0
91.2859 -0.572435 0
92.5268 -0.719784 0
77.4091 0.108226 0