# vtk DataFile Version 3.0
Unstructured Grid for Triangles
ASCII
DATASET UNSTRUCTURED_GRID
POINTS 29612 DOUBLE
-2.72397e-05 1.23686e-06 0
-2.95789e-05 9.5838e-07 0
-2.77865e-05 -3.1235e-07 0
0.0002024 5e-05 0
0.000203975 4.9875e-05 0
0.000205 5e-05 0
0.000203975 -4.9875e-05 0
0.0002024 -5e-05 0
0.000205 -5e-05 0
0.00020295 4.975e-05 0
0.00020295 -4.975e-05 0
0.000201925 4.9625e-05 0
0.000201925 -4.9625e-05 0
-5.29747e-05 -4.79887e-05 0
-5.5e-05 -5e-05 0
-5.24e-05 -5e-05 0
-5.05983e-05 -4.84325e-05 0
-4.98e-05 -5e-05 0
-4.72e-05 -5e-05 0
-4.83864e-05 -4.87761e-05 0
-4.46e-05 -5e-05 0
-4.59e-05 -4.84239e-05 0
-4.29453e-05 -4.24878e-05 0
-4.47486e-05 -4.20717e-05 0
-4.41829e-05 -4.36609e-05 0
-5.12578e-05 -4.62101e-05 0
-4.93077e-05 -4.53594e-05 0
-5.0706e-05 -4.39006e-05 0
-4.19243e-05 -4.77545e-05 0
-4.40307e-05 -4.71837e-05 0
-4.3691e-05 -4.86724e-05 0
-5.16129e-05 -4.20948e-05 0
-4.95355e-05 -4.15432e-05 0
-5.11646e-05 -4.0128e-05 0
-3.94697e-05 -4.81197e-05 0
-4.06302e-05 -4.55143e-05 0
-5.37257e-05 -3.88197e-05 0
-5.31099e-05 -4.07297e-05 0
-5.23982e-05 -3.88328e-05 0
-3.70063e-05 -4.72956e-05 0
-3.68e-05 -5e-05 0
-3.5308e-05 -4.85302e-05 0
-5.072e-05 -3.7867e-05 0
-4.85506e-05 -3.83975e-05 0
-4.90949e-05 -3.59622e-05 0
-3.37127e-05 -4.84331e-05 0
-3.16e-05 -5e-05 0
-3.26495e-05 -4.7415e-05 0
-5.5e-05 -3.5e-05 0
-5.31201e-05 -3.70361e-05 0
-5.28367e-05 -3.46817e-05 0
-3.63898e-05 -4.48809e-05 0
-3.83315e-05 -4.60336e-05 0
-3.26269e-06 -4.15503e-05 0
-5.99662e-06 -4.09556e-05 0
-5.46944e-06 -4.29488e-05 0
-5.29747e-05 4.79887e-05 0
-5.5e-05 5e-05 0
-5.5e-05 4.75e-05 0
-5.5e-05 4.5e-05 0
-5.34834e-05 4.29171e-05 0
-5.26943e-05 4.42611e-05 0
-5.34026e-05 4.60176e-05 0
-5.31099e-05 4.07297e-05 0
-5.11672e-05 4.01178e-05 0
-5.16129e-05 4.20948e-05 0
-5.24e-05 5e-05 0
-5.05983e-05 4.84325e-05 0
-5.31201e-05 3.70361e-05 0
-5.072e-05 3.7867e-05 0
-5.23982e-05 3.88328e-05 0
-4.8341e-05 4.69132e-05 0
-4.83679e-05 4.87539e-05 0
-5.28367e-05 3.46817e-05 0
-5.5e-05 3.25e-05 0
-5.25657e-05 3.28474e-05 0
-4.98e-05 5e-05 0
-5.30382e-05 3.125e-05 0
-4.19243e-05 4.77545e-05 0
-4.40015e-05 4.7335e-05 0
-4.25917e-05 4.63678e-05 0
-4.35138e-05 2.62661e-05 0
-4.14982e-05 2.74462e-05 0
-4.35654e-05 2.85217e-05 0
-4.59e-05 4.84239e-05 0
-4.36852e-05 4.87027e-05 0
-4.46e-05 5e-05 0
-5.33308e-05 2.92503e-05 0
-5.5e-05 2.75e-05 0
-5.23377e-05 2.76953e-05 0
-4.25282e-05 4.46352e-05 0
-4.09368e-05 4.35728e-05 0
-4.06302e-05 4.55143e-05 0
0.0002009 4.95e-05 0
0.0001998 5e-05 0
0.000199875 4.9375e-05 0
0.00019885 4.925e-05 0
0.0001972 5e-05 0
0.000197825 4.9125e-05 0
0.0001968 4.9e-05 0
0.000195775 4.8875e-05 0
0.0001946 5e-05 0
0.00019475 4.875e-05 0
0.000193725 4.8625e-05 0
0.000192 5e-05 0
0.0001927 4.85e-05 0
0.000191675 4.8375e-05 0
0.00019065 4.825e-05 0
0.0001894 5e-05 0
0.000189625 4.8125e-05 0
0.0001886 4.8e-05 0
0.0001868 5e-05 0
0.000187575 4.7875e-05 0
0.00018655 4.775e-05 0
0.000185515 4.8575e-05 0
0.0001842 5e-05 0
0.0001845 4.75e-05 0
0.000185525 4.7625e-05 0
0.000182564 4.829e-05 0
0.0001816 5e-05 0
0.00018245 4.725e-05 0
0.000183475 4.7375e-05 0
0.000181425 4.7125e-05 0
0.000180295 4.82657e-05 0
0.000179 5e-05 0
0.000179375 4.6875e-05 0
0.0001804 4.7e-05 0
0.000178168 4.80619e-05 0
0.0001764 5e-05 0
0.000177325 4.6625e-05 0
0.00017835 4.675e-05 0
0.000176428 4.76631e-05 0
0.0001763 4.65e-05 0
0.0001738 5e-05 0
0.0001751 4.84164e-05 0
0.000175275 4.6375e-05 0
0.000174025 4.75632e-05 0
0.0001712 5e-05 0
0.000172615 4.78449e-05 0
0.0001722 4.6e-05 0
0.000173225 4.6125e-05 0
0.00017015 4.575e-05 0
0.000171243 4.7381e-05 0
0.000169554 4.79999e-05 0
0.0001686 5e-05 0
0.000167507 4.79751e-05 0
0.000168498 4.64861e-05 0
0.000166 5e-05 0
0.00016558 4.71459e-05 0
0.000167135 4.62887e-05 0
0.0001681 4.55e-05 0
0.00016605 4.525e-05 0
0.000167075 4.5375e-05 0
0.000164059 4.61599e-05 0
0.00016394 4.79552e-05 0
0.000162881 4.6615e-05 0
0.000162975 4.4875e-05 0
0.000165025 4.5125e-05 0
0.000164 4.5e-05 0
0.000161754 4.58641e-05 0
0.000161722 4.78101e-05 0
0.000159956 4.58294e-05 0
0.000160925 4.4625e-05 0
0.00016195 4.475e-05 0
0.000157667 4.60322e-05 0
0.000158875 4.4375e-05 0
0.000159194 4.80155e-05 0
0.0001599 4.45e-05 0
0.00015785 4.425e-05 0
0.000155808 4.56757e-05 0
0.000155647 4.76701e-05 0
0.000154059 4.66642e-05 0
0.000153756 4.50083e-05 0
0.000154839 4.50446e-05 0
0.000156825 4.4125e-05 0
0.000151954 4.80508e-05 0
0.000154052 4.8477e-05 0
0.000153 5e-05 0
0.000154775 4.3875e-05 0
0.000152142 4.56625e-05 0
0.000152821 4.45753e-05 0
0.00015375 4.375e-05 0
0.0001504 5e-05 0
0.000149644 4.85168e-05 0
0.000151787 4.43178e-05 0
0.000152725 4.3625e-05 0
0.000150675 4.3375e-05 0
0.0001517 4.35e-05 0
0.000148119 4.50887e-05 0
0.000148072 4.75757e-05 0
0.000146584 4.63516e-05 0
0.000150008 4.6396e-05 0
0.000149351 4.4543e-05 0
0.00015061 4.46252e-05 0
0.0001476 4.3e-05 0
0.000148625 4.3125e-05 0
0.000146492 4.82975e-05 0
0.000144888 4.73562e-05 0
0.000146676 4.44259e-05 0
0.000145255 4.53656e-05 0
0.000145652 4.38669e-05 0
0.000141401 4.79821e-05 0
0.0001426 5e-05 0
0.00014 5e-05 0
0.000144374 4.38862e-05 0
0.00014555 4.275e-05 0
0.0001435 4.25e-05 0
0.000144525 4.2625e-05 0
0.000142746 4.38121e-05 0
0.000141288 4.43191e-05 0
0.000141707 4.32778e-05 0
0.00013921 4.38992e-05 0
0.000140355 4.5932e-05 0
0.000138302 4.5922e-05 0
0.000142912 4.58869e-05 0
0.000140592 4.30037e-05 0
0.00014145 4.225e-05 0
0.000136458 4.5869e-05 0
0.000137106 4.4063e-05 0
0.0001394 4.2e-05 0
0.000138259 4.28915e-05 0
0.000137484 4.77094e-05 0
0.000139166 4.78902e-05 0
0.00013586 4.78984e-05 0
0.000133449 4.78649e-05 0
0.000134717 4.61848e-05 0
0.000137256 4.25134e-05 0
0.000135323 4.24541e-05 0
0.000136325 4.1625e-05 0
0.000136122 4.2876e-05 0
0.000131206 4.47284e-05 0
0.000133168 4.56738e-05 0
0.000131773 4.65243e-05 0
0.000134756 4.40343e-05 0
0.000132747 4.36463e-05 0
0.000133483 4.26786e-05 0
0.000131081 4.1867e-05 0
0.000132382 4.22815e-05 0
0.000131507 4.3122e-05 0
0.000131059 4.80123e-05 0
0.00013325 4.125e-05 0
0.00012915 4.075e-05 0
0.00012982 4.18199e-05 0
0.000128915 4.26216e-05 0
0.000126366 4.47574e-05 0
0.000127331 4.30908e-05 0
0.000128781 4.44872e-05 0
0.000125336 4.28376e-05 0
0.000130218 4.31077e-05 0
0.000127894 4.16344e-05 0
0.000124774 4.69608e-05 0
0.000127668 4.64148e-05 0
0.000126591 4.8331e-05 0
0.000126722 4.18415e-05 0
0.000125768 4.11931e-05 0
0.000124326 4.13546e-05 0
0.00012505 4.025e-05 0
0.000122408 4.50118e-05 0
0.000120276 4.47432e-05 0
0.00012139 4.32235e-05 0
0.000124336 4.44132e-05 0
0.000123056 4.27595e-05 0
0.000122977 4.09049e-05 0
0.00012185 4.69217e-05 0
0.000122676 4.85947e-05 0
0.000120525 4.86094e-05 0
0.000121479 4.13153e-05 0
0.000119547 4.24221e-05 0
0.000120249 4.07448e-05 0
0.000119925 3.9625e-05 0
0.000119346 4.06114e-05 0
0.000117479 4.47279e-05 0
0.000114726 4.45259e-05 0
0.00011571 4.27814e-05 0
0.000119443 4.66611e-05 0
0.000117447 4.21596e-05 0
0.000118421 4.0752e-05 0
0.000117409 4.04437e-05 0
0.000116775 4.70073e-05 0
0.0001179 4.855e-05 0
0.000115473 4.84802e-05 0
0.00011685 3.925e-05 0
0.000117875 3.9375e-05 0
0.000115454 4.00551e-05 0
0.0001148 3.9e-05 0
0.000115825 3.9125e-05 0
0.000111704 4.23398e-05 0
0.000113786 4.26731e-05 0
0.000112589 4.43871e-05 0
0.000113234 4.06671e-05 0
0.000114754 4.13371e-05 0
0.0001106 4.42326e-05 0
0.000109703 4.24261e-05 0
0.00011275 3.875e-05 0
0.000113775 3.8875e-05 0
0.000110211 4.80875e-05 0
0.000108244 4.71951e-05 0
0.000109312 4.58413e-05 0
0.000111755 3.99116e-05 0
0.00010944 3.92972e-05 0
0.000110415 4.05876e-05 0
0.000108839 4.07536e-05 0
0.000106472 4.76905e-05 0
0.000107274 4.57868e-05 0
0.000108011 3.92415e-05 0
0.000106885 4.04365e-05 0
0.000106625 3.88708e-05 0
0.000105286 4.19254e-05 0
0.000105055 3.95469e-05 0
0.000104215 4.39764e-05 0
0.000106346 4.40629e-05 0
0.000100945 4.51249e-05 0
0.000102825 4.5614e-05 0
0.000101189 4.68452e-05 0
0.000107625 3.8125e-05 0
0.000105575 3.7875e-05 0
0.0001066 3.8e-05 0
0.000103352 4.76905e-05 0
0.000101803 4.8465e-05 0
0.000103685 3.89398e-05 0
0.00010245 3.8825e-05 0
0.000103525 3.7625e-05 0
0.000101092 3.99779e-05 0
0.000101267 3.82619e-05 0
0.000101382 4.2025e-05 0
0.000103187 4.05286e-05 0
0.000103359 4.24605e-05 0
9.87383e-05 4.5447e-05 0
9.99411e-05 4.35161e-05 0
9.744e-05 4.33145e-05 0
0.00010045 3.725e-05 0
0.000101475 3.7375e-05 0
9.70845e-05 4.65215e-05 0
9.52614e-05 4.67664e-05 0
9.61768e-05 4.49944e-05 0
9.9729e-05 3.87704e-05 0
9.78901e-05 3.9598e-05 0
9.85823e-05 3.81492e-05 0
9.62289e-05 3.93709e-05 0
9.74259e-05 3.81279e-05 0
9.7375e-05 3.6875e-05 0
9.63045e-05 3.76631e-05 0
9.58e-05 5e-05 0
9.32e-05 5e-05 0
9.47542e-05 4.8457e-05 0
9.49675e-05 3.85246e-05 0
9.36214e-05 3.89472e-05 0
9.40006e-05 3.74906e-05 0
9.66411e-05 4.12573e-05 0
9.44241e-05 4.07079e-05 0
9.03569e-05 4.24993e-05 0
9.21701e-05 4.02409e-05 0
9.27439e-05 4.27744e-05 0
8.89795e-05 4.09067e-05 0
9.03071e-05 4.0248e-05 0
9.25447e-05 3.77721e-05 0
9.3275e-05 3.6375e-05 0
9.07708e-05 3.87127e-05 0
9.11303e-05 3.70839e-05 0
9.11933e-05 4.55145e-05 0
9.30678e-05 4.73279e-05 0
9.11886e-05 4.82603e-05 0
8.87724e-05 3.88076e-05 0
8.99595e-05 3.75116e-05 0
9.02e-05 3.6e-05 0
8.89241e-05 3.6954e-05 0
8.36977e-05 4.59472e-05 0
8.36223e-05 4.83578e-05 0
8.20467e-05 4.74142e-05 0
8.71227e-05 4.03557e-05 0
8.61e-05 3.55e-05 0
8.68368e-05 3.65714e-05 0
8.5484e-05 3.6588e-05 0
8.47735e-05 4.02845e-05 0
8.23121e-05 4.21599e-05 0
8.26582e-05 3.98147e-05 0
8.46943e-05 4.2454e-05 0
8.38832e-05 3.78613e-05 0
8.35569e-05 3.63808e-05 0
8.44098e-05 3.6291e-05 0
8.5075e-05 3.5375e-05 0
8.51465e-05 4.77163e-05 0
8.3025e-05 3.5125e-05 0
8.22824e-05 3.68659e-05 0
8.1446e-05 3.57362e-05 0
8.05884e-05 3.71794e-05 0
7.53471e-05 4.77524e-05 0
7.38313e-05 4.73927e-05 0
7.39102e-05 4.61526e-05 0
7.9826e-05 3.58588e-05 0
7.88607e-05 3.76287e-05 0
7.81733e-05 3.57987e-05 0
8.16783e-05 3.84471e-05 0
8.07975e-05 4.04095e-05 0
7.52138e-05 4.04775e-05 0
7.67682e-05 4.17043e-05 0
7.49617e-05 4.21803e-05 0
7.52903e-05 3.84008e-05 0
7.38293e-05 3.93136e-05 0
[...]
CELL_DATA 58684
VECTORS velocity DOUBLE
74.2908 0.337078 0
86.6909 -1.53261e-05 0
86.6645 4.61287e-05 0
86.6964 -0.00196282 0
86.6691 0.00200573 0
86.702 -0.0025139 0
86.6752 0.00275697 0
77.8847 -0.00126424 0
77.9018 -0.0246532 0
78.0192 -0.0024129 0
78.1391 -0.00476889 0
78.2058 -0.409805 0
77.9406 -0.109724 0
78.2886 -0.135101 0
77.9179 -0.184797 0
78.4939 -0.170304 0
77.8853 -0.112789 0
78.8639 -0.157565 0
77.9734 -0.317778 0
79.3826 -0.111355 0
77.8976 -0.116003 0
78.832 -0.370211 0
85.4814 -2.1737 0
77.864 0.0124484 0
77.8695 0.0515195 0
77.8633 0.0249424 0
77.9124 0.142445 0
77.9014 0.0235201 0
77.9056 0.188389 0
78.016 0.0490176 0
77.8949 0.145323 0
77.9679 0.0333779 0
77.8585 0.143845 0
78.363 0.162689 0
78.0705 1.13427 0
78.2105 0.0686686 0
77.9064 0.17965 0
78.4437 0.354753 0
86.709 0.000836358 0
86.7143 -0.000128657 0
86.7235 -0.00590832 0
86.7258 -0.00246068 0
86.7364 -0.000321047 0
86.7448 -0.00535652 0
86.7474 -0.00713865 0
86.751 -0.0028321 0
86.7597 -0.000319109 0
86.7663 -0.0076109 0
86.7677 -0.00501939 0
86.7775 -0.00102587 0
86.7858 -0.00856725 0
86.7874 -0.00896353 0
86.7902 -0.00449835 0
86.7985 -0.000918852 0
86.8046 -0.00962646 0
86.8054 -0.0072758 0
86.8148 -0.0020101 0
86.8234 -0.011933 0
86.8249 -0.0116166 0
86.8274 -0.00603163 0
86.838 -0.000696871 0
86.8398 -0.0138336 0
86.8484 -0.00932941 0
86.8599 -0.000874985 0
86.8607 -0.0169406 0
86.8635 -0.0137825 0
86.8716 -0.0117469 0
86.8792 -0.00130511 0
86.8805 -0.0165676 0
86.8885 -0.012519 0
86.8982 -0.00223069 0
86.8988 -0.018864 0
86.9049 -0.013891 0
86.9125 -0.0227976 0
86.9221 -0.00114532 0
86.9245 -0.0173433 0
86.9304 -0.011181 0
86.9436 -0.00221285 0
86.9454 -0.0236622 0
86.9676 -0.0197796 0
86.9494 -0.0190352 0
86.9693 -0.00142772 0
86.9778 -0.0124325 0
86.9716 -0.0244979 0
87.0019 -0.0150024 0
86.9964 -0.0200862 0
86.9929 -0.0278925 0
87.0051 -0.0332142 0
87.028 -0.0214666 0
87.0426 -0.0304461 0
87.0185 -0.0258095 0
87.0355 -0.036936 0
87.055 -0.028144 0
87.0502 -0.0286421 0
87.0592 -0.0393515 0
87.0924 -0.0374399 0
87.075 -0.031522 0
87.0823 -0.0416501 0
87.1011 -0.0485085 0
87.1082 -0.0366493 0
87.1342 -0.0438702 0
87.1108 -0.038677 0
87.1372 -0.0124698 0
87.1385 -0.0491523 0
87.1591 -0.0468094 0
87.1501 -0.0501244 0
87.1618 -0.0146015 0
87.1655 -0.0537308 0
87.1823 -0.058752 0
87.2023 -0.0336444 0
87.1985 -0.0361925 0
87.1835 -0.0489799 0
87.2184 -0.063273 0
87.2178 -0.0259178 0
87.2481 -0.0581888 0
87.2349 -0.0376773 0
87.2714 -0.00326388 0
87.2593 -0.0661935 0
87.2746 -0.0740448 0
87.3066 -0.0664314 0
87.3264 -0.0499639 0
87.2804 -0.0397052 0
87.3159 -0.0756694 0
87.352 -0.0509294 0
87.3469 -0.079079 0
87.3212 -0.0276966 0
87.36 -0.0719281 0
87.3736 -0.0272167 0
87.3729 -0.083068 0
87.4002 -0.0950729 0
87.4331 -0.0564214 0
87.4269 -0.0786501 0
87.3994 -0.0367083 0
87.4664 -0.102273 0
87.4119 -0.0295294 0
87.4458 -0.101818 0
87.5109 -0.114659 0
87.5226 -0.0807772 0
87.5391 -0.0979225 0
87.4981 -0.0960606 0
87.5267 -0.105279 0
87.4927 -0.0452061 0
87.5694 -0.121176 0
87.5947 -0.13322 0
87.6242 -0.0872691 0
87.5487 -0.0634238 0
87.5905 -0.114006 0
87.6106 -0.134442 0
87.5709 -0.0268882 0
87.6772 -0.145164 0
87.6897 -0.159357 0
87.7282 -0.0984696 0
87.6438 -0.0847034 0
87.7034 -0.13339 0
87.7241 -0.160731 0
87.6641 -0.0287711 0
87.7423 -0.184991 0
87.7901 -0.198319 0
87.8023 -0.140494 0
87.7998 -0.162277 0
87.8481 -0.149863 0
87.8307 -0.205905 0
87.8275 -0.0542001 0
87.84 -0.193822 0
87.9108 -0.199546 0
87.882 -0.066071 0
87.9749 -0.237421 0
88.0004 -0.219907 0
87.9798 -0.14008 0
88.0401 -0.108203 0
87.9784 -0.242891 0
88.0148 -0.267297 0
88.0122 -0.0547404 0
88.0847 -0.273829 0
88.1321 -0.281864 0
88.0551 -0.202238 0
88.1157 -0.129512 0
88.1528 -0.168225 0
88.1623 -0.321329 0
88.1981 -0.11147 0
88.2253 -0.302509 0
88.2562 -0.297823 0
88.2794 -0.347716 0
88.2297 -0.00545401 0
88.377 -0.34859 0
88.2663 -0.269037 0
88.3836 -0.245439 0
88.4506 -0.287241 0
88.4247 -0.387734 0
88.48 -0.392322 0
88.3447 -0.0885583 0
88.5171 -0.382868 0
88.5429 -0.441067 0
88.5564 -0.424487 0
88.646 -0.0998891 0
88.5405 -0.338345 0
88.7062 -0.491088 0
88.7555 -0.374271 0
88.6791 -0.315648 0
88.7653 -0.520373 0
88.749 -0.512679 0
88.6345 -0.0892547 0
88.8512 -0.573022 0
88.8878 -0.538743 0
89.0625 -0.104717 0
88.9854 -0.592935 0
88.8335 -0.413835 0
89.0821 -0.380291 0
89.1443 -0.491151 0
89.0394 -0.538622 0
89.0629 -0.644086 0
89.1199 -0.233672 0
89.2341 -0.624105 0
89.1884 -0.717373 0
89.3759 -0.73065 0
89.333 -0.0115615 0
89.331 -0.601994 0
89.3883 -0.756628 0
89.2297 -0.186841 0
89.4512 -0.79664 0
89.5436 -0.459815 0
89.4968 -0.833122 0
89.7046 -0.258317 0
89.6666 -0.719486 0
89.6312 -0.846945 0
89.5701 -0.130054 0
89.7723 -0.874893 0
89.9529 -0.854073 0
89.8001 -0.727176 0
89.8441 -0.438768 0
89.9855 -0.981617 0
89.9949 -0.384902 0
90.1522 -0.0664724 0
89.9322 -0.772785 0
90.102 -0.972811 0
90.1894 -1.04491 0
90.217 -0.327923 0
90.3359 -0.902331 0
90.4918 -0.988624 0
90.2931 -0.111243 0
90.6397 -0.962161 0
90.5525 -1.07432 0
90.4147 -0.795533 0
90.4729 -0.384293 0
90.5874 -0.449525 0
90.7083 -1.08097 0
90.6384 -0.007022 0
90.8154 -1.15286 0
90.9515 -1.09445 0
90.907 -1.15202 0
90.8813 -0.251536 0
91.0177 -0.939037 0
91.2688 -0.952526 0
90.8466 -0.00513665 0
91.3584 -1.13116 0
91.5382 -0.961674 0
91.1846 -0.696531 0
91.01 -0.288176 0
91.5328 -1.08664 0
91.1733 -0.3571 0
90.9758 -0.0170428 0
91.4638 -0.731502 0
91.7973 -0.988718 0
91.9643 -0.922907 0
91.1524 -0.0769514 0
91.915 -0.630045 0
92.053 -0.826646 0
91.0108 0.0302548 0
92.1928 -0.815026 0
92.3818 -0.682726 0
92.0031 -0.240733 0
90.759 0.0093356 0
92.5395 -0.455692 0
91.6735 0.196124 0
91.9061 0.30366 0
92.4123 -0.301176 0
92.1902 -0.0355648 0
92.8712 -0.0617456 0
90.8795 0.372735 0
92.8557 -0.166466 0
92.4043 0.414224 0
93.057 0.483876 0
90.7971 0.107956 0
93.0106 1.19434 0
92.7802 1.42841 0
89.3999 0.198504 0
93.2373 0.881557 0
93.1348 1.367 0
90.7694 1.48301 0
90.5255 0.707323 0
92.0674 1.11589 0
93.0298 1.90572 0
89.6554 0.331577 0
92.5277 2.80236 0
93.2079 2.14496 0
93.2202 2.37437 0
88.8767 1.42066 0
91.5451 2.93277 0
92.5807 3.19234 0
88.8612 0.233633 0
92.3921 3.69749 0
92.0423 3.57717 0
91.0595 5.21171 0
86.5429 0.397908 0
92.2046 4.90839 0
90.2049 3.54046 0
88.3248 1.57187 0
87.9269 2.99713 0
91.9662 5.41764 0
90.8208 5.86846 0
86.9876 0.610842 0
90.8914 6.69756 0
86.6818 -0.000464885 0
86.6874 6.65497e-05 0
86.6957 0.00525018 0
86.6979 0.00199738 0
86.7077 0.000326337 0
86.7158 0.00507154 0
86.7181 0.00606039 0
86.7221 0.00194406 0
86.7299 0.000380346 0
86.7363 0.00731154 0
86.7376 0.00457971 0
86.7469 0.000990696 0
86.7547 0.00803074 0
86.7562 0.00849983 0
86.7589 0.00426466 0
86.7671 0.000892693 0
86.7729 0.00936939 0
86.774 0.00690247 0
86.7833 0.00198603 0
86.7916 0.0117135 0
86.7932 0.0113644 0
86.8046 0.0147236 0
86.7956 0.00584204 0
86.8127 0.00953368 0
86.8254 0.0149587 0
86.8164 0.00938911 0
86.8317 0.0139963 0
86.8399 0.0118331 0
86.8467 0.0186126 0
86.8363 0.0093397 0
86.8566 0.0126313 0
86.8646 0.0207512 0
86.8563 0.00990135 0
86.8811 0.0236414 0
86.8845 0.021281 0
86.8904 0.0167231 0
86.8771 0.012251 0
86.8932 0.0177368 0
86.9103 0.0172822 0
86.8993 0.0114309 0
86.9264 0.0290161 0
86.9262 0.0110425 0
86.9373 0.0200488 0
86.9222 0.0150981 0
86.9414 0.0248146 0
86.9632 0.0282619 0
86.9718 0.0153345 0
86.9596 0.0257759 0
86.9816 0.0307665 0
86.9846 0.0333093 0
87.0089 0.0174068 0
86.9986 0.0216619 0
87.0131 0.0306643 0
87.0278 0.0428195 0
87.0357 0.0208301 0
87.0413 0.0347199 0
87.0503 0.0448705 0
87.0645 0.026351 0
87.0454 0.0316564 0
87.0729 0.0496567 0
87.0754 0.0470443 0
87.0847 0.0301915 0
87.096 0.0216554 0
87.1059 0.0437203 0
87.0479 0.0144939 0
87.1219 0.0507465 0
87.1545 0.0599276 0
87.1375 0.0507439 0
87.1229 0.0307081 0
87.1671 0.0602073 0
87.1741 0.0537147 0
87.1919 0.026269 0
87.1568 0.0499175 0
87.1975 0.0561877 0
87.2141 0.0649238 0
87.1639 0.0158601 0
87.2022 0.0463734 0
87.2493 0.0746631 0
87.2111 0.0383645 0
87.2604 0.0668125 0
87.2895 0.0788934 0
87.265 0.0579765 0
87.2816 0.0238717 0
87.2993 0.0687591 0
87.3172 0.0810924 0
87.2955 0.0207671 0
87.3405 0.0886203 0
87.3074 0.0637605 0
87.3631 0.0741407 0
87.3229 0.0505705 0
87.3733 0.0953457 0
87.4315 0.114856 0
87.3878 0.0291777 0
87.3889 0.0785427 0
87.4559 0.121808 0
87.4326 0.0861465 0
87.3762 0.0357317 0
87.4713 0.112952 0
87.4928 0.118988 0
87.4496 0.0293501 0
87.4944 0.0539497 0
87.5237 0.104082 0
87.5413 0.137814 0
87.4708 0.0733978 0
87.5703 0.134589 0
87.5902 0.143257 0
87.5873 0.0493506 0
87.5685 0.0893664 0
87.6368 0.160067 0
87.6296 0.136367 0
87.5318 0.0454036 0
87.6542 0.15321 0
87.7013 0.164345 0
87.6717 0.0657422 0
87.6674 0.140254 0
87.7559 0.196397 0
87.7418 0.149854 0
87.6192 0.047738 0
87.7787 0.183807 0
87.8434 0.224032 0
87.7262 0.0648373 0
87.8292 0.178085 0
87.804 0.0834199 0
87.8688 0.187344 0
87.7837 0.105356 0
87.9004 0.237927 0
87.9539 0.23903 0
87.8585 0.0661856 0
87.9449 0.23321 0
88.0182 0.27006 0
87.9706 0.0695345 0
87.9146 0.196081 0
88.0082 0.231336 0
88.0636 0.274692 0
87.9447 0.0415579 0
88.0742 0.250752 0
88.1715 0.326192 0
88.1512 0.274229 0
88.0849 0.0831075 0
88.2216 0.287142 0
88.0405 0.105256 0
88.0758 0.240979 0
88.2128 0.317447 0
88.3168 0.361835 0
88.3257 0.37078 0
88.0568 0.00638704 0
88.4208 0.422981 0
88.4316 0.412131 0
88.4552 0.365803 0
88.3908 0.180095 0
88.4937 0.197611 0
88.4701 0.409274 0
88.246 0.111078 0
88.589 0.463514 0
88.5798 0.454499 0
88.5868 0.409093 0
88.4787 0.118915 0
88.6661 0.457214 0
88.7871 0.570805 0
88.6476 0.213877 0
88.5932 0.226831 0
88.7469 0.462287 0
88.9095 0.596619 0
88.5147 0.14031 0
88.9478 0.630395 0
88.9864 0.614475 0
88.8028 0.120796 0
89.1254 0.704841 0
89.1583 0.67697 0
89.2289 0.58525 0
89.0109 0.257079 0
88.9784 0.291086 0
89.1433 0.654736 0
88.8823 0.186971 0
89.3078 0.782003 0
89.3614 0.739256 0
89.3633 0.682452 0
89.101 0.103739 0
89.5345 0.805366 0
89.5523 0.823563 0
89.3954 0.463293 0
89.6507 0.648868 0
89.4131 0.375143 0
89.6081 0.790126 0
89.3008 0.238729 0
89.7667 0.921656 0
89.7918 0.891616 0
89.3402 0.18967 0
89.8652 0.821775 0
90.0484 0.948948 0
89.9601 0.925737 0
89.8482 0.216217 0
90.2601 0.993505 0
90.3047 1.06021 0
89.7995 0.640962 0
90.2008 0.785854 0
89.8626 0.390796 0
90.503 1.1166 0
90.0412 0.121489 0
90.5681 1.08504 0
90.5635 1.02774 0
89.8576 0.0960017 0
90.4971 0.930766 0
90.891 1.10076 0
90.9856 1.11087 0
90.4455 0.280255 0
91.0613 1.08412 0
91.1106 1.15573 0
90.4218 0.703931 0
91.1236 0.762749 0
90.6073 0.27161 0
91.2801 1.15374 0
90.634 0.101013 0
91.4298 1.07707 0
91.5215 1.06131 0
90.4602 0.0707831 0
91.343 0.878094 0
91.8171 0.990122 0
91.9827 0.925494 0
90.9 0.178163 0
91.8172 0.86599 0
92.1239 0.875988 0
91.4375 0.748643 0
91.9147 0.435576 0
90.9852 0.111716 0
91.8905 0.783612 0
90.9989 0.0410365 0
92.3748 0.768417 0
92.4632 0.619236 0
90.8949 0.039073 0
92.1678 0.304732 0
92.6176 0.333555 0
92.8084 0.197262 0
90.9967 -0.097521 0
92.8998 -0.00751403 0
92.9475 -0.145386 0
91.1445 -0.268741 0
92.9626 -0.175794 0
92.1595 -0.634396 0
91.4225 -0.0891519 0
91.2289 0.00353748 0
93.1002 -0.469778 0
92.8584 -0.871692 0
93.2928 -1.04817 0
90.8867 -0.00568022 0
92.5681 -1.32559 0
93.2933 -1.79008 0
90.8427 -0.123884 0
92.399 -1.29323 0
93.2679 -2.33477 0
91.8376 -1.76592 0
90.8157 -0.659404 0
93.0738 -2.68728 0
92.9336 -2.9826 0
91.7981 -1.11318 0
91.2327 -3.15241 0
89.1865 -2.60403 0
92.5719 -3.0216 0
89.6115 -0.407496 0
92.5539 -3.97854 0
89.9562 7.30076 0
90.6952 6.52433 0
85.2577 1.92978 0
89.85 7.25786 0
87.5976 6.64255 0
89.1857 7.89228 0
85.857 0.757698 0
88.1979 8.09637 0
87.0171 7.96875 0
84.5872 0.96392 0
87.0915 8.49637 0
92.4621 -4.40051 0
89.8556 -0.25254 0
92.1929 -4.74808 0
90.9448 -5.15002 0
90.3889 -4.43323 0
88.9549 -0.269456 0
91.1857 -5.74206 0
85.7785 7.7626 0
90.526 -7.02482 0
88.6997 -1.40291 0
90.2006 -6.79016 0
89.329 -7.75838 0
83.4171 2.37109 0
88.8886 -7.61408 0
90.1206 -4.24525 0
89.3846 -6.89816 0
87.5114 -5.10564 0
86.5692 -0.839569 0
88.439 -7.00615 0
87.6387 -7.41788 0
85.1496 8.19101 0
87.7122 -7.42949 0
87.4134 -0.45525 0
86.6726 -7.78305 0
86.1558 -8.49056 0
85.8796 -0.564766 0
85.0577 -8.63508 0
85.5686 -6.33731 0
83.6786 -0.654019 0
84.0373 -8.78709 0
84.1032 -4.87389 0
85.8387 -3.8374 0
84.5839 -7.52298 0
83.4648 -7.87487 0
86.1547 4.40067 0
82.4931 0.529893 0
85.5578 2.94285 0
84.1954 -0.0736574 0
82.9171 -8.54203 0
84.7699 7.75795 0
82.2168 0.3853 0
84.1906 6.60077 0
82.0457 -8.40553 0
83.7588 -1.7194 0
81.3235 -6.13565 0
84.1905 8.84236 0
81.0831 2.02896 0
84.0873 8.76713 0
81.8437 7.31068 0
81.3731 0.41416 0
82.4866 7.68705 0
81.9378 -6.38412 0
83.2626 -0.475528 0
81.1866 -8.5336 0
81.2027 -8.30036 0
82.8633 8.2563 0
80.9239 7.87007 0
80.6678 0.0409612 0
81.994 8.12557 0
80.1018 5.09073 0
80.6723 2.29242 0
80.2574 -8.48073 0
81.1497 -1.10105 0
80.5929 -8.35621 0
79.7949 8.32297 0
79.6263 -7.7483 0
80.2616 -1.07927 0
79.8941 -3.40445 0
78.3582 -7.44257 0
81.3894 -4.11556 0
78.2152 -7.19719 0
79.7432 -0.289942 0
77.2967 -6.87623 0
79.4207 2.86908 0
80.0245 0.461725 0
79.359 6.98782 0
79.3906 0.115912 0
79.1599 8.19946 0
78.8678 7.69508 0
79.0617 0.184786 0
78.0971 6.73379 0
78.8291 0.133441 0
78.6812 -6.43381 0
79.7416 -0.57578 0
79.91 6.05633 0
77.9476 0.738774 0
77.649 6.32337 0
77.1792 -6.83702 0
79.8556 -0.231358 0
75.5437 -5.84488 0
77.9127 -0.441429 0
76.3618 -5.75268 0
78.6738 2.553 0
77.8601 0.120132 0
79.3968 -5.2367 0
77.8628 -0.113098 0
75.662 -5.41594 0
77.0494 5.70516 0
77.0537 -4.27506 0
77.8899 -0.244799 0
75.9574 -4.63765 0
78.042 3.14655 0
75.8872 1.99762 0
76.5415 4.93113 0
77.7002 -0.98661 0
75.8073 -5.14077 0
77.8414 0.402596 0
76.4764 6.65549 0
77.7936 -2.38128 0
77.8613 -0.0845613 0
75.4712 -4.63629 0
76.2007 5.94652 0
77.8768 0.717549 0
76.1381 4.64674 0
75.8646 4.5872 0
77.8364 0.380408 0
75.063 4.08345 0
74.6183 -4.16537 0
77.8612 -0.29598 0
74.316 -4.15759 0
76.6581 -1.98225 0
77.8677 -0.201997 0
73.6881 -2.83294 0
75.1294 5.08142 0
77.8066 0.622381 0
76.349 3.25446 0
74.2925 -2.57346 0
77.7856 -0.311289 0
73.6498 -2.34442 0
74.0106 3.73846 0
77.797 0.266469 0
74.4081 3.52189 0
74.7039 2.87333 0
77.8609 0.0355997 0
73.8742 3.06061 0
74.9774 -1.51432 0
77.7452 -0.542455 0
74.2746 -1.33432 0
73.1067 -0.850453 0
77.1223 -0.926381 0
73.1565 -0.720066 0
76.8354 0.960622 0
77.8147 0.0767803 0
75.962 2.43958 0
73.6527 2.46442 0
77.7015 0.0596238 0
73.2292 1.55694 0
77.4464 -0.23652 0
77.8502 -0.111675 0
73.1545 -0.236825 0
73.6758 -0.0928328 0
77.8327 -0.0661049 0
75.866 0.308254 0
73.8411 0.527852 0
77.8403 -0.0623172 0
77.2616 -5.66703 0
77.9488 -0.433228 0
77.8532 0.132115 0
78.1145 6.89647 0
79.0651 -7.7534 0
82.1222 -0.947807 0
80.4975 0.998307 0
81.7582 8.63263 0
77.8166 0.279647 0
74.5776 4.86188 0
74.0474 -2.8421 0
77.8187 -0.200387 0
77.9031 -0.572671 0
77.6258 -3.67664 0
77.9784 0.801963 0
77.9175 0.201007 0
77.8276 -0.000801258 0
73.7214 2.05612 0
79.3498 0.466906 0
78.433 1.57837 0
78.7626 -1.37484 0
80.3073 -0.692417 0
85.9695 -1.27108 0
85.5381 -8.48007 0
87.4458 8.09249 0
85.4983 0.469087 0
77.7931 1.66627 0
79.7103 8.01649 0
78.6241 -7.09639 0
79.3098 -2.31845 0
76.9437 -1.46055 0
74.6654 -0.223177 0
76.2348 5.84054 0
78.1156 1.89483 0
77.9518 -1.79125 0
74.8447 -4.64132 0
91.9373 -5.39066 0
88.6336 -0.661987 0
88.205 0.791199 0
92.3867 4.48321 0
77.9737 -0.81544 0
77.8901 -0.0453651 0
77.8825 0.148208 0
78.9891 0.758712 0
83.2038 0.736582 0
82.8321 4.11327 0
81.2719 -1.99321 0
84.4154 -1.7494 0
81.7391 4.90745 0
84.7058 8.32314 0
83.5268 -8.70337 0
82.6354 -1.92308 0
86.749 1.6139 0
87.8387 5.03659 0
86.3895 -2.79585 0
87.5585 -0.0420163 0
90.7872 -0.249839 0
93.2535 -1.29928 0
93.0903 0.494609 0
89.9703 0.0284775 0
90.9678 0.00333033 0
92.5057 0.601402 0
92.2827 -0.583982 0
91.114 0.033892 0
79.061 -1.44984 0
78.4837 -0.574416 0
78.4047 1.2387 0
79.2302 0.953024 0
78.2386 1.2282 0
77.889 0.241946 0
77.8597 -0.106248 0
78.1586 -1.12905 0
89.6539 0.954311 0
90.8967 1.88196 0
89.9795 -1.14586 0
90.1919 -0.17044 0
75.9972 -0.960023 0
77.8521 -0.155648 0
77.4858 -0.439413 0
77.8715 -0.376077 0
77.8564 0.204333 0
77.8956 0.96745 0
91.5964 1.00706 0
90.7705 0.158378 0
90.9188 -0.00484511 0
91.3213 -1.08484 0
81.7427 -0.0399094 0
80.9719 -2.83194 0
82.0505 1.8089 0
80.7275 0.448877 0
77.8785 4.05357 0
77.3991 7.33223 0
77.1379 -6.27373 0
78.3372 -3.23438 0
78.8263 -2.11546 0
77.5662 -2.23292 0
77.9755 4.64688 0
78.254 2.22812 0
91.1187 0.0449156 0
90.8478 0.141224 0
91.0329 -0.0475394 0
92.0098 0.111826 0
79.8238 -5.43498 0
80.9146 -5.2717 0
80.4929 4.65049 0
81.0515 8.55268 0
79.1451 -3.98855 0
80.3184 -2.31834 0
80.153 3.12395 0
79.2963 1.54009 0
90.8235 1.1686 0
90.2718 0.14432 0
90.5112 -0.0116034 0
90.3999 -1.04709 0
77.3294 1.01627 0
77.847 0.0289426 0
90.9853 -0.0599649 0
91.6331 -0.367598 0
91.3449 0.25634 0
90.8174 0.0393341 0
78.8572 -0.958311 0
78.3764 -1.33466 0
79.1755 1.74653 0
78.2478 0.735884 0
77.8957 -0.147003 0
78.1614 -0.700194 0
77.9737 0.315329 0
77.8701 0.136247 0
74.1531 1.71528 0
76.9806 1.52571 0
87.155 -3.15975 0
90.5187 -6.36832 0
91.4883 5.816 0
86.8647 2.27948 0
76.8379 -2.31742 0
74.7855 -2.90388 0
89.5919 0.158737 0
89.8573 0.889819 0
88.8876 0.0741546 0
89.5008 0.84251 0
89.8734 -0.866966 0
89.7221 -0.142756 0
89.2614 -0.701608 0
89.1899 -0.0142539 0
90.6765 -0.219558 0
90.788 -0.632228 0
90.6381 0.397857 0
90.3966 0.00787672 0
77.8591 0.178725 0
77.6927 0.540093 0
76.479 0.45209 0
74.2449 0.846512 0
77.799 -0.250684 0
77.8425 -0.169254 0
77.3943 0.274235 0
77.3276 -0.752199 0
93.0736 -2.73947 0
89.9017 -1.75234 0
90.8897 2.22313 0
93.2368 1.5982 0
78.0354 -0.0630183 0
78.1413 -0.364969 0
77.8965 0.0535688 0
78.324 0.261353 0
90.0769 -0.208528 0
90.0937 -0.539343 0
90.1216 0.361228 0
89.7287 0.116197 0
88.701 0.164151 0
88.8829 0.522168 0
88.9009 -0.608212 0
88.7953 -0.147013 0
78.4988 -0.89981 0
79.4333 -2.13904 0
78.8661 1.61505 0
78.4808 1.27396 0
79.2038 2.88564 0
77.6099 1.85335 0
78.1507 -1.92525 0
78.8255 -2.79812 0
91.4728 -0.530387 0
92.4302 0.319047 0
92.6011 -0.313847 0
91.8955 0.566551 0
77.7089 -1.15085 0
77.8294 -1.3672 0
77.8501 1.08438 0
77.3616 1.30872 0
88.7082 0.536438 0
88.4208 0.158678 0
88.4825 -0.100702 0
88.6501 -0.456956 0
85.2419 4.27687 0
87.2587 7.14541 0
86.7473 -8.4162 0
86.2978 -3.35255 0
75.2646 -3.42842 0
77.5878 -3.51835 0
84.863 -3.06915 0
85.5128 -1.1001 0
83.8529 0.455158 0
87.201 3.11472 0
74.8618 4.63043 0
76.7529 2.7356 0
89.4319 -0.0516835 0
89.6023 -0.548362 0
89.4856 0.361933 0
89.3962 0.0986601 0
89.0774 -0.370713 0
88.8506 -1.51771 0
89.4081 2.09226 0
88.4233 0.273005 0
83.2154 1.39965 0
81.4541 0.351311 0
82.5871 -0.337825 0
83.2555 -3.11691 0
91.305 0.330949 0
91.5842 0.874167 0
91.7421 -0.951674 0
91.6385 -0.0649889 0
82.2396 -3.83786 0
83.3432 -1.84075 0
82.5543 2.71647 0
85.1256 5.99955 0
88.3035 0.321649 0
88.1797 0.060679 0
88.3586 -0.0980457 0
88.2916 -0.333334 0
88.9032 -0.184012 0
89.0716 -0.00895854 0
89.0437 0.102775 0
88.8668 0.42953 0
79.9704 0.498504 0
79.7253 1.3063 0
79.9891 -1.14836 0
80.8415 -0.320093 0
81.5218 2.83201 0
79.8903 1.9522 0
79.2722 -2.83884 0
78.4328 -2.86604 0
90.824 -0.480731 0
90.5699 -0.278216 0
90.3886 0.375097 0
91.3333 0.622798 0
79.8875 3.85197 0
80.3951 2.57527 0
79.3369 -0.82559 0
79.163 -0.294033 0
78.9998 0.265965 0
79.7316 0.889719 0
76.6006 -0.875241 0
77.5609 -1.34936 0
92.4322 -3.65193 0
89.9509 -2.07114 0
89.3992 3.75934 0
92.8241 3.71354 0
77.9132 -0.865537 0
77.8871 -0.143437 0
77.8287 0.198152 0
77.9859 0.847468 0
78.2524 0.087284 0
78.2774 0.626444 0
78.4314 -0.343419 0
78.5821 -0.0200558 0
75.4723 -0.269094 0
73.1703 0.151647 0
85.2488 3.22941 0
89.3575 2.98163 0
88.0408 -2.52035 0
88.6405 -4.98509 0
77.6196 2.06894 0
77.1755 1.15456 0
77.8594 -0.0253907 0
77.6783 -0.0508757 0
80.4572 6.84598 0
78.3424 4.06292 0
80.0908 -4.30458 0
79.1179 -8.11783 0
77.4017 0.784772 0
77.7862 0.424134 0
90.6726 0.52909 0
91.0144 1.1517 0
90.7103 -1.04932 0
90.6543 -0.20645 0
88.4983 -0.118822 0
88.7135 -0.0809691 0
88.6845 0.0692914 0
88.5743 0.395385 0
92.9904 0.414324 0
91.8336 1.37636 0
91.8921 -0.546442 0