# vtk DataFile Version 3.0
Unstructured Grid for Triangles
ASCII
DATASET UNSTRUCTURED_GRID
POINTS 29612 DOUBLE
-2.72397e-05 1.23686e-06 0
-2.95789e-05 9.5838e-07 0
-2.77865e-05 -3.1235e-07 0
0.0002024 5e-05 0
0.000203975 4.9875e-05 0
0.000205 5e-05 0
0.000203975 -4.9875e-05 0
0.0002024 -5e-05 0
0.000205 -5e-05 0
0.00020295 4.975e-05 0
0.00020295 -4.975e-05 0
0.000201925 4.9625e-05 0
0.000201925 -4.9625e-05 0
-5.29747e-05 -4.79887e-05 0
-5.5e-05 -5e-05 0
-5.24e-05 -5e-05 0
-5.05983e-05 -4.84325e-05 0
-4.98e-05 -5e-05 0
-4.72e-05 -5e-05 0
-4.83864e-05 -4.87761e-05 0
-4.46e-05 -5e-05 0
-4.59e-05 -4.84239e-05 0
-4.29453e-05 -4.24878e-05 0
-4.47486e-05 -4.20717e-05 0
-4.41829e-05 -4.36609e-05 0
-5.12578e-05 -4.62101e-05 0
-4.93077e-05 -4.53594e-05 0
-5.0706e-05 -4.39006e-05 0
-4.19243e-05 -4.77545e-05 0
-4.40307e-05 -4.71837e-05 0
-4.3691e-05 -4.86724e-05 0
-5.16129e-05 -4.20948e-05 0
-4.95355e-05 -4.15432e-05 0
-5.11646e-05 -4.0128e-05 0
-3.94697e-05 -4.81197e-05 0
-4.06302e-05 -4.55143e-05 0
-5.37257e-05 -3.88197e-05 0
-5.31099e-05 -4.07297e-05 0
-5.23982e-05 -3.88328e-05 0
-3.70063e-05 -4.72956e-05 0
-3.68e-05 -5e-05 0
-3.5308e-05 -4.85302e-05 0
-5.072e-05 -3.7867e-05 0
-4.85506e-05 -3.83975e-05 0
-4.90949e-05 -3.59622e-05 0
-3.37127e-05 -4.84331e-05 0
-3.16e-05 -5e-05 0
-3.26495e-05 -4.7415e-05 0
-5.5e-05 -3.5e-05 0
-5.31201e-05 -3.70361e-05 0
-5.28367e-05 -3.46817e-05 0
-3.63898e-05 -4.48809e-05 0
-3.83315e-05 -4.60336e-05 0
-3.26269e-06 -4.15503e-05 0
-5.99662e-06 -4.09556e-05 0
-5.46944e-06 -4.29488e-05 0
-5.29747e-05 4.79887e-05 0
-5.5e-05 5e-05 0
-5.5e-05 4.75e-05 0
-5.5e-05 4.5e-05 0
-5.34834e-05 4.29171e-05 0
-5.26943e-05 4.42611e-05 0
-5.34026e-05 4.60176e-05 0
-5.31099e-05 4.07297e-05 0
-5.11672e-05 4.01178e-05 0
-5.16129e-05 4.20948e-05 0
-5.24e-05 5e-05 0
-5.05983e-05 4.84325e-05 0
-5.31201e-05 3.70361e-05 0
-5.072e-05 3.7867e-05 0
-5.23982e-05 3.88328e-05 0
-4.8341e-05 4.69132e-05 0
-4.83679e-05 4.87539e-05 0
-5.28367e-05 3.46817e-05 0
-5.5e-05 3.25e-05 0
-5.25657e-05 3.28474e-05 0
-4.98e-05 5e-05 0
-5.30382e-05 3.125e-05 0
-4.19243e-05 4.77545e-05 0
-4.40015e-05 4.7335e-05 0
-4.25917e-05 4.63678e-05 0
-4.35138e-05 2.62661e-05 0
-4.14982e-05 2.74462e-05 0
-4.35654e-05 2.85217e-05 0
-4.59e-05 4.84239e-05 0
-4.36852e-05 4.87027e-05 0
-4.46e-05 5e-05 0
-5.33308e-05 2.92503e-05 0
-5.5e-05 2.75e-05 0
-5.23377e-05 2.76953e-05 0
-4.25282e-05 4.46352e-05 0
-4.09368e-05 4.35728e-05 0
-4.06302e-05 4.55143e-05 0
0.0002009 4.95e-05 0
0.0001998 5e-05 0
0.000199875 4.9375e-05 0
0.00019885 4.925e-05 0
0.0001972 5e-05 0
0.000197825 4.9125e-05 0
0.0001968 4.9e-05 0
0.000195775 4.8875e-05 0
0.0001946 5e-05 0
0.00019475 4.875e-05 0
0.000193725 4.8625e-05 0
0.000192 5e-05 0
0.0001927 4.85e-05 0
0.000191675 4.8375e-05 0
0.00019065 4.825e-05 0
0.0001894 5e-05 0
0.000189625 4.8125e-05 0
0.0001886 4.8e-05 0
0.0001868 5e-05 0
0.000187575 4.7875e-05 0
0.00018655 4.775e-05 0
0.000185515 4.8575e-05 0
0.0001842 5e-05 0
0.0001845 4.75e-05 0
0.000185525 4.7625e-05 0
0.000182564 4.829e-05 0
0.0001816 5e-05 0
0.00018245 4.725e-05 0
0.000183475 4.7375e-05 0
0.000181425 4.7125e-05 0
0.000180295 4.82657e-05 0
0.000179 5e-05 0
0.000179375 4.6875e-05 0
0.0001804 4.7e-05 0
0.000178168 4.80619e-05 0
0.0001764 5e-05 0
0.000177325 4.6625e-05 0
0.00017835 4.675e-05 0
0.000176428 4.76631e-05 0
0.0001763 4.65e-05 0
0.0001738 5e-05 0
0.0001751 4.84164e-05 0
0.000175275 4.6375e-05 0
0.000174025 4.75632e-05 0
0.0001712 5e-05 0
0.000172615 4.78449e-05 0
0.0001722 4.6e-05 0
0.000173225 4.6125e-05 0
0.00017015 4.575e-05 0
0.000171243 4.7381e-05 0
0.000169554 4.79999e-05 0
0.0001686 5e-05 0
0.000167507 4.79751e-05 0
0.000168498 4.64861e-05 0
0.000166 5e-05 0
0.00016558 4.71459e-05 0
0.000167135 4.62887e-05 0
0.0001681 4.55e-05 0
0.00016605 4.525e-05 0
0.000167075 4.5375e-05 0
0.000164059 4.61599e-05 0
0.00016394 4.79552e-05 0
0.000162881 4.6615e-05 0
0.000162975 4.4875e-05 0
0.000165025 4.5125e-05 0
0.000164 4.5e-05 0
0.000161754 4.58641e-05 0
0.000161722 4.78101e-05 0
0.000159956 4.58294e-05 0
0.000160925 4.4625e-05 0
0.00016195 4.475e-05 0
0.000157667 4.60322e-05 0
0.000158875 4.4375e-05 0
0.000159194 4.80155e-05 0
0.0001599 4.45e-05 0
0.00015785 4.425e-05 0
0.000155808 4.56757e-05 0
0.000155647 4.76701e-05 0
0.000154059 4.66642e-05 0
0.000153756 4.50083e-05 0
0.000154839 4.50446e-05 0
0.000156825 4.4125e-05 0
0.000151954 4.80508e-05 0
0.000154052 4.8477e-05 0
0.000153 5e-05 0
0.000154775 4.3875e-05 0
0.000152142 4.56625e-05 0
0.000152821 4.45753e-05 0
0.00015375 4.375e-05 0
0.0001504 5e-05 0
0.000149644 4.85168e-05 0
0.000151787 4.43178e-05 0
0.000152725 4.3625e-05 0
0.000150675 4.3375e-05 0
0.0001517 4.35e-05 0
0.000148119 4.50887e-05 0
0.000148072 4.75757e-05 0
0.000146584 4.63516e-05 0
0.000150008 4.6396e-05 0
0.000149351 4.4543e-05 0
0.00015061 4.46252e-05 0
0.0001476 4.3e-05 0
0.000148625 4.3125e-05 0
0.000146492 4.82975e-05 0
0.000144888 4.73562e-05 0
0.000146676 4.44259e-05 0
0.000145255 4.53656e-05 0
0.000145652 4.38669e-05 0
0.000141401 4.79821e-05 0
0.0001426 5e-05 0
0.00014 5e-05 0
0.000144374 4.38862e-05 0
0.00014555 4.275e-05 0
0.0001435 4.25e-05 0
0.000144525 4.2625e-05 0
0.000142746 4.38121e-05 0
0.000141288 4.43191e-05 0
0.000141707 4.32778e-05 0
0.00013921 4.38992e-05 0
0.000140355 4.5932e-05 0
0.000138302 4.5922e-05 0
0.000142912 4.58869e-05 0
0.000140592 4.30037e-05 0
0.00014145 4.225e-05 0
0.000136458 4.5869e-05 0
0.000137106 4.4063e-05 0
0.0001394 4.2e-05 0
0.000138259 4.28915e-05 0
0.000137484 4.77094e-05 0
0.000139166 4.78902e-05 0
0.00013586 4.78984e-05 0
0.000133449 4.78649e-05 0
0.000134717 4.61848e-05 0
0.000137256 4.25134e-05 0
0.000135323 4.24541e-05 0
0.000136325 4.1625e-05 0
0.000136122 4.2876e-05 0
0.000131206 4.47284e-05 0
0.000133168 4.56738e-05 0
0.000131773 4.65243e-05 0
0.000134756 4.40343e-05 0
0.000132747 4.36463e-05 0
0.000133483 4.26786e-05 0
0.000131081 4.1867e-05 0
0.000132382 4.22815e-05 0
0.000131507 4.3122e-05 0
0.000131059 4.80123e-05 0
0.00013325 4.125e-05 0
0.00012915 4.075e-05 0
0.00012982 4.18199e-05 0
0.000128915 4.26216e-05 0
0.000126366 4.47574e-05 0
0.000127331 4.30908e-05 0
0.000128781 4.44872e-05 0
0.000125336 4.28376e-05 0
0.000130218 4.31077e-05 0
0.000127894 4.16344e-05 0
0.000124774 4.69608e-05 0
0.000127668 4.64148e-05 0
0.000126591 4.8331e-05 0
0.000126722 4.18415e-05 0
0.000125768 4.11931e-05 0
0.000124326 4.13546e-05 0
0.00012505 4.025e-05 0
0.000122408 4.50118e-05 0
0.000120276 4.47432e-05 0
0.00012139 4.32235e-05 0
0.000124336 4.44132e-05 0
0.000123056 4.27595e-05 0
0.000122977 4.09049e-05 0
0.00012185 4.69217e-05 0
0.000122676 4.85947e-05 0
0.000120525 4.86094e-05 0
0.000121479 4.13153e-05 0
0.000119547 4.24221e-05 0
0.000120249 4.07448e-05 0
0.000119925 3.9625e-05 0
0.000119346 4.06114e-05 0
0.000117479 4.47279e-05 0
0.000114726 4.45259e-05 0
0.00011571 4.27814e-05 0
0.000119443 4.66611e-05 0
0.000117447 4.21596e-05 0
0.000118421 4.0752e-05 0
0.000117409 4.04437e-05 0
0.000116775 4.70073e-05 0
0.0001179 4.855e-05 0
0.000115473 4.84802e-05 0
0.00011685 3.925e-05 0
0.000117875 3.9375e-05 0
0.000115454 4.00551e-05 0
0.0001148 3.9e-05 0
0.000115825 3.9125e-05 0
0.000111704 4.23398e-05 0
0.000113786 4.26731e-05 0
0.000112589 4.43871e-05 0
0.000113234 4.06671e-05 0
0.000114754 4.13371e-05 0
0.0001106 4.42326e-05 0
0.000109703 4.24261e-05 0
0.00011275 3.875e-05 0
0.000113775 3.8875e-05 0
0.000110211 4.80875e-05 0
0.000108244 4.71951e-05 0
0.000109312 4.58413e-05 0
0.000111755 3.99116e-05 0
0.00010944 3.92972e-05 0
0.000110415 4.05876e-05 0
0.000108839 4.07536e-05 0
0.000106472 4.76905e-05 0
0.000107274 4.57868e-05 0
0.000108011 3.92415e-05 0
0.000106885 4.04365e-05 0
0.000106625 3.88708e-05 0
0.000105286 4.19254e-05 0
0.000105055 3.95469e-05 0
0.000104215 4.39764e-05 0
0.000106346 4.40629e-05 0
0.000100945 4.51249e-05 0
0.000102825 4.5614e-05 0
0.000101189 4.68452e-05 0
0.000107625 3.8125e-05 0
0.000105575 3.7875e-05 0
0.0001066 3.8e-05 0
0.000103352 4.76905e-05 0
0.000101803 4.8465e-05 0
0.000103685 3.89398e-05 0
0.00010245 3.8825e-05 0
0.000103525 3.7625e-05 0
0.000101092 3.99779e-05 0
0.000101267 3.82619e-05 0
0.000101382 4.2025e-05 0
0.000103187 4.05286e-05 0
0.000103359 4.24605e-05 0
9.87383e-05 4.5447e-05 0
9.99411e-05 4.35161e-05 0
9.744e-05 4.33145e-05 0
0.00010045 3.725e-05 0
0.000101475 3.7375e-05 0
9.70845e-05 4.65215e-05 0
9.52614e-05 4.67664e-05 0
9.61768e-05 4.49944e-05 0
9.9729e-05 3.87704e-05 0
9.78901e-05 3.9598e-05 0
9.85823e-05 3.81492e-05 0
9.62289e-05 3.93709e-05 0
9.74259e-05 3.81279e-05 0
9.7375e-05 3.6875e-05 0
9.63045e-05 3.76631e-05 0
9.58e-05 5e-05 0
9.32e-05 5e-05 0
9.47542e-05 4.8457e-05 0
9.49675e-05 3.85246e-05 0
9.36214e-05 3.89472e-05 0
9.40006e-05 3.74906e-05 0
9.66411e-05 4.12573e-05 0
9.44241e-05 4.07079e-05 0
9.03569e-05 4.24993e-05 0
9.21701e-05 4.02409e-05 0
9.27439e-05 4.27744e-05 0
8.89795e-05 4.09067e-05 0
9.03071e-05 4.0248e-05 0
9.25447e-05 3.77721e-05 0
9.3275e-05 3.6375e-05 0
9.07708e-05 3.87127e-05 0
9.11303e-05 3.70839e-05 0
9.11933e-05 4.55145e-05 0
9.30678e-05 4.73279e-05 0
9.11886e-05 4.82603e-05 0
8.87724e-05 3.88076e-05 0
8.99595e-05 3.75116e-05 0
9.02e-05 3.6e-05 0
8.89241e-05 3.6954e-05 0
8.36977e-05 4.59472e-05 0
8.36223e-05 4.83578e-05 0
8.20467e-05 4.74142e-05 0
8.71227e-05 4.03557e-05 0
8.61e-05 3.55e-05 0
8.68368e-05 3.65714e-05 0
8.5484e-05 3.6588e-05 0
8.47735e-05 4.02845e-05 0
8.23121e-05 4.21599e-05 0
8.26582e-05 3.98147e-05 0
8.46943e-05 4.2454e-05 0
8.38832e-05 3.78613e-05 0
8.35569e-05 3.63808e-05 0
8.44098e-05 3.6291e-05 0
8.5075e-05 3.5375e-05 0
8.51465e-05 4.77163e-05 0
8.3025e-05 3.5125e-05 0
8.22824e-05 3.68659e-05 0
8.1446e-05 3.57362e-05 0
8.05884e-05 3.71794e-05 0
7.53471e-05 4.77524e-05 0
7.38313e-05 4.73927e-05 0
7.39102e-05 4.61526e-05 0
7.9826e-05 3.58588e-05 0
7.88607e-05 3.76287e-05 0
7.81733e-05 3.57987e-05 0
8.16783e-05 3.84471e-05 0
8.07975e-05 4.04095e-05 0
7.52138e-05 4.04775e-05 0
7.67682e-05 4.17043e-05 0
7.49617e-05 4.21803e-05 0
7.52903e-05 3.84008e-05 0
7.38293e-05 3.93136e-05 0
[...]
CELL_DATA 58684
VECTORS velocity DOUBLE
74.2597 0.337127 0
86.7612 5.79963e-06 0
86.7343 2.55799e-05 0
86.7669 -0.0020673 0
86.7391 0.00212784 0
86.7724 -0.0025599 0
86.7451 0.00282755 0
77.8816 -0.00146289 0
77.8973 -0.0245034 0
78.0096 -0.00261252 0
78.1261 -0.00503975 0
78.1906 -0.409392 0
77.9337 -0.109705 0
78.2722 -0.134971 0
77.9118 -0.184865 0
78.474 -0.17043 0
77.8823 -0.112622 0
78.8389 -0.157418 0
77.9647 -0.317654 0
79.3528 -0.111555 0
77.8947 -0.115694 0
78.8076 -0.369789 0
85.4266 -2.17309 0
77.8629 0.0123457 0
77.8671 0.0514605 0
77.8622 0.0249478 0
77.9074 0.142208 0
77.897 0.0233912 0
77.9014 0.188422 0
78.0066 0.0490631 0
77.8919 0.145248 0
77.9602 0.0332215 0
77.8551 0.143974 0
78.3451 0.162733 0
78.0541 1.13342 0
78.1958 0.0685304 0
77.9035 0.17922 0
78.4244 0.354601 0
86.7795 0.000992334 0
86.785 -8.84874e-05 0
86.7941 -0.00605466 0
86.7962 -0.00232109 0
86.8072 -0.000218523 0
86.8157 -0.00539891 0
86.8181 -0.00720504 0
86.8217 -0.00275345 0
86.8307 -0.000247584 0
86.8372 -0.00763343 0
86.8384 -0.00492856 0
86.8486 -0.000930578 0
86.8569 -0.00858125 0
86.8584 -0.00898905 0
86.8611 -0.0043943 0
86.8697 -0.000851134 0
86.8756 -0.00963238 0
86.8763 -0.00722797 0
86.8861 -0.00194138 0
86.8946 -0.011949 0
86.8959 -0.0116212 0
86.8983 -0.00590774 0
86.9093 -0.000632611 0
86.9108 -0.013988 0
86.9194 -0.00930493 0
86.931 -0.000919597 0
86.9316 -0.0170646 0
86.9342 -0.0137672 0
86.9426 -0.0117751 0
86.95 -0.00132048 0
86.9511 -0.0166093 0
86.9592 -0.0125776 0
86.9689 -0.00222772 0
86.9691 -0.0188975 0
86.9753 -0.0139297 0
86.9828 -0.0228937 0
86.9923 -0.00113545 0
86.9945 -0.0173821 0
87.0003 -0.0111814 0
87.0133 -0.00223848 0
87.0149 -0.0237613 0
87.0365 -0.0198734 0
87.0189 -0.0191141 0
87.0382 -0.00150859 0
87.0463 -0.0124122 0
87.0404 -0.0244966 0
87.0696 -0.0150377 0
87.0645 -0.0201584 0
87.0613 -0.0279704 0
87.0731 -0.0332903 0
87.0948 -0.0214856 0
87.1091 -0.0305553 0
87.0859 -0.0259088 0
87.1024 -0.0370319 0
87.1208 -0.0281566 0
87.1162 -0.0286362 0
87.1252 -0.0393822 0
87.157 -0.0374589 0
87.1398 -0.0314037 0
87.1473 -0.0416475 0
87.1653 -0.0484222 0
87.1715 -0.0365002 0
87.1963 -0.0437752 0
87.1743 -0.0387401 0
87.1988 -0.0124364 0
87.2009 -0.0491283 0
87.2204 -0.0467957 0
87.2119 -0.0501197 0
87.222 -0.0144345 0
87.2267 -0.0537397 0
87.2429 -0.0587964 0
87.2606 -0.0337447 0
87.2572 -0.0362246 0
87.2431 -0.0489441 0
87.2768 -0.0633306 0
87.275 -0.0259701 0
87.3048 -0.0582991 0
87.2917 -0.0377498 0
87.3253 -0.00342739 0
87.3157 -0.0663976 0
87.3303 -0.0743123 0
87.3605 -0.0667526 0
87.3784 -0.0503514 0
87.3342 -0.0397681 0
87.3694 -0.0760553 0
87.4026 -0.05137 0
87.3987 -0.0796016 0
87.3727 -0.0280635 0
87.4111 -0.0724739 0
87.4222 -0.0276787 0
87.4235 -0.0835264 0
87.4496 -0.0956461 0
87.4794 -0.0569082 0
87.4744 -0.0795067 0
87.4466 -0.0372255 0
87.5124 -0.103165 0
87.4584 -0.029934 0
87.4929 -0.102688 0
87.5551 -0.115887 0
87.5653 -0.0817932 0
87.581 -0.0990514 0
87.5423 -0.0969775 0
87.5698 -0.106512 0
87.5349 -0.0455474 0
87.6108 -0.122569 0
87.6353 -0.134946 0
87.662 -0.0884902 0
87.5887 -0.0645799 0
87.6305 -0.115537 0
87.65 -0.136048 0
87.6093 -0.027359 0
87.7141 -0.147044 0
87.7264 -0.161648 0
87.7615 -0.10004 0
87.6797 -0.0858024 0
87.7388 -0.135617 0
87.759 -0.162804 0
87.6982 -0.0293373 0
87.7768 -0.187492 0
87.8231 -0.201056 0
87.833 -0.14222 0
87.8315 -0.164437 0
87.877 -0.15149 0
87.8619 -0.208737 0
87.8552 -0.0550474 0
87.8706 -0.196598 0
87.9389 -0.202099 0
87.9079 -0.0666268 0
88.001 -0.24004 0
88.0251 -0.222188 0
88.004 -0.141678 0
88.0606 -0.109061 0
88.0048 -0.245793 0
88.0403 -0.27036 0
88.0331 -0.0553445 0
88.1073 -0.276355 0
88.1531 -0.284078 0
88.0772 -0.203906 0
88.1344 -0.130252 0
88.1702 -0.169245 0
88.1831 -0.323983 0
88.2129 -0.111869 0
88.2435 -0.304432 0
88.273 -0.299455 0
88.2962 -0.349552 0
88.2428 -0.0055289 0
88.3906 -0.349846 0
88.2816 -0.270237 0
88.3942 -0.245987 0
88.4594 -0.28754 0
88.4375 -0.388785 0
88.4904 -0.393082 0
88.3546 -0.0888254 0
88.5259 -0.383108 0
88.5517 -0.441248 0
88.5644 -0.424616 0
88.6454 -0.0996021 0
88.5473 -0.338209 0
88.7107 -0.490592 0
88.7552 -0.373254 0
88.6801 -0.314824 0
88.767 -0.519144 0
88.7522 -0.512002 0
88.635 -0.0891508 0
88.8507 -0.571224 0
88.886 -0.537135 0
89.0505 -0.104787 0
88.9803 -0.590645 0
88.8318 -0.412823 0
89.0719 -0.378918 0
89.1333 -0.489051 0
89.032 -0.536502 0
89.0562 -0.641496 0
89.1062 -0.23263 0
89.2219 -0.621394 0
89.1785 -0.714126 0
89.3607 -0.727422 0
89.3132 -0.0117094 0
89.3152 -0.599369 0
89.3725 -0.75319 0
89.2129 -0.186074 0
89.4339 -0.792933 0
89.522 -0.458275 0
89.4788 -0.829142 0
89.6777 -0.257719 0
89.6431 -0.716866 0
89.6093 -0.843484 0
89.5452 -0.129705 0
89.7476 -0.871462 0
89.9239 -0.851474 0
89.7733 -0.724531 0
89.8154 -0.437843 0
89.9561 -0.978508 0
89.9624 -0.384457 0
90.1162 -0.0663219 0
89.9025 -0.770732 0
90.07 -0.97025 0
90.1566 -1.04202 0
90.1807 -0.327765 0
90.2999 -0.900833 0
90.4536 -0.987543 0
90.2543 -0.110958 0
90.5994 -0.961911 0
90.5137 -1.07348 0
90.3769 -0.79483 0
90.4327 -0.384175 0
90.5459 -0.44966 0
90.6671 -1.081 0
90.5938 -0.00711469 0
90.7734 -1.15325 0
90.9081 -1.09531 0
90.8641 -1.15276 0
90.8345 -0.251897 0
90.9733 -0.940242 0
91.2221 -0.954485 0
90.7983 -0.00522135 0
91.3121 -1.13363 0
91.4905 -0.964252 0
91.1384 -0.697775 0
90.9623 -0.288781 0
91.4855 -1.08956 0
91.1254 -0.358031 0
90.9244 -0.0171539 0
91.4152 -0.733529 0
91.7486 -0.991975 0
91.9152 -0.926092 0
91.1009 -0.0774203 0
91.8647 -0.632317 0
92.0033 -0.829732 0
90.9572 0.0300935 0
92.1429 -0.818306 0
92.3314 -0.685792 0
91.9514 -0.24212 0
90.7033 0.00938965 0
92.4886 -0.458098 0
91.6193 0.195812 0
91.8516 0.303387 0
92.3607 -0.303045 0
92.1375 -0.036615 0
92.8193 -0.0628763 0
90.823 0.372875 0
92.804 -0.167891 0
92.3502 0.414079 0
93.0037 0.48415 0
90.741 0.108044 0
92.9556 1.19569 0
92.7243 1.42977 0
89.3417 0.198546 0
93.183 0.88275 0
93.0789 1.36864 0
90.7112 1.48384 0
90.4678 0.707529 0
92.0112 1.11672 0
92.973 1.90769 0
89.5968 0.331699 0
92.4697 2.80466 0
93.1511 2.1477 0
93.1632 2.37713 0
88.818 1.42079 0
91.4865 2.93476 0
92.5218 3.19486 0
88.8027 0.23357 0
92.3332 3.69992 0
91.9829 3.57905 0
90.9998 5.21275 0
86.4862 0.397692 0
92.1445 4.91036 0
90.1458 3.54147 0
88.2663 1.57191 0
87.869 2.99715 0
91.9062 5.4192 0
90.7607 5.8689 0
86.93 0.610732 0
90.8313 6.69788 0
86.752 -0.000591613 0
86.7578 2.35021e-05 0
86.766 0.00539647 0
86.768 0.00188298 0
86.7783 0.00022736 0
86.7864 0.00513419 0
86.7886 0.00613414 0
86.7926 0.00181543 0
86.8008 0.000314422 0
86.8071 0.00741056 0
86.8081 0.00451402 0
86.818 0.000898104 0
86.8257 0.0080979 0
86.8272 0.00858323 0
86.8298 0.00420557 0
86.8383 0.000828322 0
86.844 0.00943043 0
86.8449 0.00689645 0
86.8546 0.00192482 0
86.8629 0.0117722 0
86.8643 0.0114277 0
86.8757 0.0149464 0
86.8667 0.00575017 0
86.8838 0.00959299 0
86.8967 0.0150702 0
86.8876 0.00940187 0
86.9027 0.0140283 0
86.9111 0.0118984 0
86.9178 0.0187448 0
86.9075 0.00938597 0
86.9277 0.012735 0
86.9355 0.020864 0
86.9273 0.00995759 0
86.9518 0.0237701 0
86.9551 0.0214845 0
86.9608 0.0168404 0
86.9478 0.012268 0
86.9637 0.0178087 0
86.9804 0.0174262 0
86.9695 0.0114519 0
86.9961 0.0291404 0
86.9958 0.0110299 0
87.0067 0.020162 0
86.9919 0.0151138 0
87.0106 0.0248248 0
87.032 0.0283279 0
87.04 0.01536 0
87.0283 0.0257651 0
87.0498 0.0307704 0
87.0526 0.0333359 0
87.0759 0.0174885 0
87.0659 0.0216475 0
87.08 0.0307269 0
87.0943 0.0427704 0
87.1014 0.020867 0
87.1072 0.0347418 0
87.1159 0.0447622 0
87.1287 0.0261794 0
87.1106 0.031484 0
87.1373 0.0494619 0
87.1396 0.0469018 0
87.148 0.0301231 0
87.1587 0.0216343 0
87.1683 0.0435275 0
87.1128 0.0143013 0
87.1839 0.05061 0
87.2152 0.0598219 0
87.1986 0.0505829 0
87.1844 0.030618 0
87.227 0.060088 0
87.2336 0.0537075 0
87.2492 0.0262667 0
87.2166 0.0497551 0
87.2555 0.0562031 0
87.2713 0.0649023 0
87.2228 0.0157903 0
87.2594 0.0463756 0
87.305 0.0747813 0
87.2678 0.0383581 0
87.3154 0.0670513 0
87.3429 0.0791218 0
87.3189 0.0580785 0
87.3339 0.0240175 0
87.3519 0.0690549 0
87.3693 0.0813935 0
87.3468 0.0207536 0
87.3914 0.0890411 0
87.3588 0.0640555 0
87.4124 0.0747249 0
87.3735 0.050935 0
87.4225 0.0958358 0
87.478 0.115722 0
87.4341 0.0295425 0
87.4362 0.0789711 0
87.5015 0.122765 0
87.4781 0.0870888 0
87.4232 0.0362187 0
87.5159 0.114201 0
87.5361 0.120353 0
87.4926 0.0297047 0
87.536 0.054641 0
87.5653 0.10557 0
87.583 0.139489 0
87.5136 0.0740935 0
87.6107 0.136373 0
87.6296 0.145233 0
87.6245 0.0502299 0
87.6075 0.0905777 0
87.6744 0.162325 0
87.6667 0.138214 0
87.5708 0.0457069 0
87.6906 0.15544 0
87.736 0.166975 0
87.7053 0.0667438 0
87.7032 0.142241 0
87.7894 0.199264 0
87.7746 0.152131 0
87.6545 0.0483465 0
87.8112 0.186736 0
87.8737 0.227164 0
87.7575 0.0656074 0
87.8589 0.180695 0
87.8327 0.0846591 0
87.8971 0.189682 0
87.8134 0.106703 0
87.9289 0.241178 0
87.9805 0.242119 0
87.8845 0.0668059 0
87.9712 0.236031 0
88.0427 0.273103 0
87.9922 0.0703965 0
87.9414 0.198421 0
88.0314 0.233534 0
88.0865 0.27747 0
87.9675 0.0418835 0
88.096 0.253124 0
88.1912 0.328752 0
88.1699 0.276045 0
88.1025 0.0837816 0
88.2382 0.28854 0
88.06 0.106285 0
88.0971 0.242929 0
88.2306 0.319389 0
88.3321 0.363417 0
88.3404 0.372154 0
88.0752 0.00673589 0
88.4333 0.424068 0
88.4435 0.413177 0
88.4644 0.365938 0
88.3992 0.180414 0
88.4992 0.197584 0
88.4803 0.409589 0
88.2587 0.11138 0
88.5962 0.463457 0
88.5863 0.454248 0
88.5919 0.408671 0
88.4834 0.118673 0
88.6695 0.45644 0
88.7886 0.56916 0
88.6475 0.213423 0
88.5959 0.226685 0
88.747 0.460742 0
88.9072 0.594376 0
88.5189 0.140411 0
88.9446 0.62788 0
88.9816 0.612137 0
88.7973 0.120488 0
89.117 0.701526 0
89.149 0.673979 0
89.2156 0.582585 0
89.0002 0.256374 0
88.9697 0.290261 0
89.1331 0.651753 0
88.8757 0.186879 0
89.2943 0.777968 0
89.3462 0.735732 0
89.3464 0.679287 0
89.0868 0.103417 0
89.5148 0.801692 0
89.5318 0.819778 0
89.3764 0.461434 0
89.6271 0.646372 0
89.393 0.374032 0
89.586 0.786844 0
89.2829 0.237921 0
89.7415 0.918005 0
89.7657 0.888494 0
89.3203 0.188801 0
89.837 0.819119 0
90.017 0.946211 0
89.9304 0.922815 0
89.8181 0.215697 0
90.2254 0.991442 0
90.2695 1.05792 0
89.7719 0.639298 0
90.1658 0.784753 0
89.8328 0.390043 0
90.4648 1.11499 0
90.0067 0.12126 0
90.5289 1.08422 0
90.524 1.02761 0
89.8261 0.0959335 0
90.4575 0.930448 0
90.848 1.10152 0
90.9417 1.11179 0
90.4051 0.28003 0
91.0164 1.08555 0
91.0657 1.15745 0
90.3832 0.703846 0
91.0778 0.76426 0
90.5644 0.271833 0
91.2341 1.15613 0
90.5901 0.101118 0
91.3829 1.0798 0
91.474 1.06416 0
90.4186 0.0708634 0
91.2953 0.880449 0
91.7682 0.993616 0
91.9335 0.928957 0
90.8527 0.178576 0
91.768 0.869469 0
92.0742 0.879688 0
91.3896 0.750633 0
91.8639 0.437605 0
90.936 0.112242 0
91.841 0.786915 0
90.9483 0.0411971 0
92.3246 0.771996 0
92.4127 0.6224 0
90.8459 0.0392634 0
92.1159 0.306768 0
92.5662 0.335843 0
92.7569 0.199162 0
90.942 -0.0974668 0
92.8479 -0.00624404 0
92.895 -0.144543 0
91.0892 -0.2687 0
92.91 -0.175081 0
92.1044 -0.634502 0
91.3693 -0.0885876 0
91.176 0.00385932 0
93.047 -0.469942 0
92.8041 -0.87229 0
93.2384 -1.04951 0
90.8319 -0.00569326 0
92.5119 -1.32685 0
93.2374 -1.79249 0
90.7866 -0.123953 0
92.3432 -1.29448 0
93.211 -2.33755 0
91.7801 -1.7672 0
90.7588 -0.659769 0
93.0163 -2.69013 0
92.8754 -2.98545 0
91.7416 -1.11388 0
91.1738 -3.15399 0
89.1278 -2.60446 0
92.5134 -3.02384 0
89.5531 -0.407771 0
92.4945 -3.9812 0
89.8968 7.30023 0
90.6352 6.52458 0
85.2034 1.92931 0
89.7908 7.25709 0
87.5403 6.64097 0
89.1271 7.8909 0
85.8014 0.757559 0
88.1402 8.09443 0
86.9609 7.96623 0
84.5345 0.963474 0
87.0352 8.4938 0
92.4024 -4.40274 0
89.7977 -0.252671 0
92.1328 -4.75019 0
90.885 -5.15119 0
90.3297 -4.43423 0
88.8963 -0.269371 0
91.1256 -5.74326 0
85.7239 7.75954 0
90.4661 -7.02494 0
88.641 -1.40317 0
90.1409 -6.7902 0
89.27 -7.75753 0
83.3672 2.36989 0
88.8301 -7.6129 0
90.0613 -4.24613 0
89.3254 -6.89744 0
87.4541 -5.10484 0
86.5125 -0.839673 0
88.3808 -7.005 0
87.5815 -7.41608 0
85.0958 8.18775 0
87.6548 -7.42788 0
87.3557 -0.455297 0
86.6165 -7.78053 0
86.1004 -8.48768 0
85.8239 -0.564741 0
85.004 -8.63152 0
85.5139 -6.33499 0
83.6279 -0.654037 0
83.9846 -8.7832 0
84.0518 -4.87153 0
85.7836 -3.83636 0
84.5308 -7.51984 0
83.4137 -7.87095 0
86.0993 4.39956 0
82.4463 0.529699 0
85.5033 2.94194 0
84.1434 -0.0737306 0
82.8664 -8.53772 0
84.7167 7.75454 0
82.1709 0.38512 0
84.1387 6.59759 0
81.9965 -8.40098 0
83.7081 -1.71848 0
81.2773 -6.13195 0
84.1377 8.83848 0
81.0415 2.02732 0
84.0347 8.76316 0
81.7964 7.30631 0
81.3308 0.413735 0
82.437 7.68303 0
81.89 -6.38065 0
83.2133 -0.475058 0
81.1388 -8.529 0
81.1552 -8.29568 0
82.813 8.25215 0
80.8775 7.86551 0
80.629 0.0412065 0
81.9453 8.1212 0
80.0607 5.08715 0
80.6323 2.29043 0
80.2112 -8.47588 0
81.1083 -1.10005 0
80.5464 -8.35134 0
79.7493 8.31812 0
79.5816 -7.74366 0
80.2245 -1.07835 0
79.8558 -3.4019 0
78.3157 -7.43774 0
81.3451 -4.1129 0
78.1732 -7.19249 0
79.7099 -0.289932 0
77.2561 -6.87164 0
79.3857 2.86696 0
79.9891 0.461448 0
79.3152 6.98348 0
79.3607 0.116078 0
79.1151 8.19467 0
78.8243 7.6902 0
79.0346 0.184875 0
78.056 6.72939 0
78.8048 0.133409 0
78.6403 -6.42959 0
79.7082 -0.575403 0
79.8677 6.05246 0
77.9362 0.737936 0
77.6086 6.31897 0
77.1392 -6.83237 0
79.8219 -0.231008 0
75.506 -5.84104 0
77.9054 -0.441229 0
76.3241 -5.7489 0
78.6433 2.55114 0
77.859 0.120229 0
79.3565 -5.23285 0
77.8615 -0.113048 0
75.6253 -5.41236 0
77.0108 5.7011 0
77.019 -4.27165 0
77.8861 -0.244226 0
75.9223 -4.63439 0
78.0102 3.14433 0
75.8581 1.99608 0
76.505 4.92777 0
77.6846 -0.985789 0
75.7711 -5.13716 0
77.8354 0.402494 0
76.4369 6.6512 0
77.7664 -2.37939 0
77.8604 -0.0844692 0
75.4364 -4.63323 0
76.1623 5.94259 0
77.8665 0.717209 0
76.1032 4.64353 0
75.8289 4.58383 0
77.8301 0.380521 0
75.0288 4.08088 0
74.5834 -4.16226 0
77.8565 -0.295671 0
74.2813 -4.15476 0
76.6306 -1.98024 0
77.8646 -0.201659 0
73.6546 -2.83098 0
75.0938 5.07812 0
77.795 0.621775 0
76.3181 3.25219 0
74.2599 -2.57159 0
77.7776 -0.311352 0
73.6165 -2.3427 0
73.9764 3.73595 0
77.7886 0.266091 0
74.3745 3.5196 0
74.671 2.87124 0
77.8596 0.0354005 0
73.8405 3.05861 0
74.9471 -1.51317 0
77.7337 -0.541807 0
74.243 -1.33342 0
73.0736 -0.849677 0
77.1011 -0.92539 0
73.1236 -0.719587 0
76.8122 0.959949 0
77.8094 0.0771389 0
75.9317 2.43745 0
73.6195 2.46286 0
77.6914 0.0595531 0
73.1962 1.55583 0
77.4305 -0.236167 0
77.848 -0.111789 0
73.1217 -0.236606 0
73.6436 -0.0927094 0
77.8279 -0.0660474 0
75.8389 0.307959 0
73.8092 0.527352 0
77.8368 -0.0622251 0
77.2241 -5.66312 0
77.9405 -0.432915 0
77.8511 0.13231 0
78.0727 6.8918 0
79.0211 -7.74872 0
82.0767 -0.946964 0
80.459 0.997609 0
81.7093 8.62799 0
77.8113 0.279633 0
74.5422 4.85872 0
74.0142 -2.84014 0
77.8158 -0.200665 0
77.8938 -0.572589 0
77.5927 -3.67362 0
77.9657 0.801575 0
77.9145 0.20057 0
77.8219 -0.000701715 0
73.6887 2.05486 0
79.3197 0.466518 0
78.4088 1.57705 0
78.7363 -1.3739 0
80.2701 -0.691782 0
85.914 -1.27103 0
85.4837 -8.47682 0
87.3891 8.09018 0
85.4435 0.469056 0
77.7708 1.66499 0
79.6649 8.01166 0
78.5821 -7.09161 0
79.2767 -2.31667 0
76.9203 -1.45961 0
74.6349 -0.222637 0
76.1968 5.83665 0
78.092 1.89313 0
77.9291 -1.78999 0
74.8097 -4.63831 0
91.8773 -5.3923 0
88.5752 -0.662031 0
88.1466 0.791556 0
92.3271 4.4856 0
77.961 -0.815001 0
77.8871 -0.045104 0
77.8784 0.148238 0
78.9624 0.757944 0
83.1549 0.736426 0
82.7835 4.1114 0
81.2293 -1.99184 0
84.363 -1.74867 0
81.6929 4.9046 0
84.6527 8.31962 0
83.475 -8.69936 0
82.5878 -1.92199 0
86.6922 1.61359 0
87.7811 5.03592 0
86.3332 -2.79531 0
87.5007 -0.0420428 0
90.7308 -0.249855 0
93.1986 -1.30092 0
93.0369 0.494966 0
89.9124 0.0283423 0
90.9164 0.00341699 0
92.4552 0.604477 0
92.2319 -0.586514 0
91.0603 0.0336474 0
79.0322 -1.44855 0
78.4632 -0.573985 0
78.3823 1.23781 0
79.2009 0.951921 0
78.2187 1.2271 0
77.8853 0.241453 0
77.8585 -0.106419 0
78.1408 -1.12796 0
89.5951 0.954574 0
90.8381 1.88284 0
89.9211 -1.14624 0
90.1344 -0.170452 0
75.9705 -0.959451 0
77.847 -0.155556 0
77.4707 -0.439278 0
77.8652 -0.375505 0
77.8531 0.204571 0
77.8805 0.967096 0
91.5481 1.01015 0
90.7251 0.158652 0
90.869 -0.00494858 0
91.2753 -1.0869 0
81.6986 -0.040187 0
80.9303 -2.82987 0
82.0048 1.80778 0
80.6882 0.448575 0
77.8444 4.05029 0
77.3578 7.32761 0
77.099 -6.26935 0
78.3058 -3.23149 0
78.7973 -2.11346 0
77.5401 -2.23137 0
77.9393 4.64365 0
78.227 2.22653 0
91.0651 0.0447225 0
90.7922 0.141216 0
90.9787 -0.04757 0
91.9575 0.113327 0
79.7816 -5.43151 0
80.87 -5.26848 0
80.4508 4.64746 0
81.0039 8.54794 0
79.108 -3.98558 0
80.2797 -2.31675 0
80.1141 3.12187 0
79.2655 1.5386 0
90.7814 1.16855 0
90.2335 0.144534 0
90.4687 -0.0117024 0
90.363 -1.04596 0
77.3095 1.01531 0
77.8444 0.0291851 0
90.9351 -0.0602439 0
91.5827 -0.36899 0
91.2949 0.257329 0
90.7699 0.0395238 0
78.8315 -0.957345 0
78.3545 -1.3334 0
79.1453 1.74491 0
78.2303 0.735589 0
77.8927 -0.146909 0
78.1469 -0.699442 0
77.965 0.315233 0
77.8673 0.136245 0
74.1212 1.71431 0
76.9565 1.52469 0
87.098 -3.15923 0
90.4589 -6.36863 0
91.4281 5.81707 0
86.8077 2.27941 0
76.8096 -2.31522 0
74.7531 -2.90181 0
89.5669 0.157958 0
89.8295 0.886889 0
88.8792 0.0740911 0
89.482 0.838496 0
89.8463 -0.863848 0
89.6942 -0.142484 0
89.249 -0.698603 0
89.1737 -0.01428 0
90.6324 -0.219899 0
90.7452 -0.632742 0
90.5953 0.398236 0
90.356 0.00797023 0
77.8554 0.178882 0
77.6803 0.539556 0
76.4549 0.452087 0
74.2136 0.84611 0
77.7909 -0.250203 0
77.8394 -0.169384 0
77.3777 0.274373 0
77.3085 -0.751178 0
93.0159 -2.74256 0
89.843 -1.75289 0
90.8308 2.22437 0
93.1811 1.60047 0
78.0251 -0.063178 0
78.1275 -0.365042 0
77.8928 0.0531936 0
78.307 0.261141 0
90.0427 -0.208335 0
90.0607 -0.538443 0
90.0867 0.36083 0
89.7006 0.11602 0
88.6997 0.16423 0
88.8792 0.520082 0
88.8995 -0.606225 0
88.7909 -0.146777 0
78.4769 -0.89914 0
79.4005 -2.13695 0
78.8378 1.61381 0
78.4578 1.27309 0
79.1698 2.88338 0
77.5858 1.85192 0
78.1267 -1.92375 0
78.7937 -2.79563 0
91.4173 -0.530462 0
92.3786 0.321207 0
92.5496 -0.315785 0
91.8403 0.566681 0
77.6912 -1.14958 0
77.8099 -1.36594 0
77.8335 1.08341 0
77.34 1.30747 0
88.7122 0.535378 0
88.4283 0.15894 0
88.488 -0.10057 0
88.6555 -0.456494 0
85.1882 4.27538 0
87.2021 7.14346 0
86.6911 -8.41362 0
86.2422 -3.35174 0
75.2316 -3.42595 0
77.5555 -3.51584 0
84.8097 -3.06793 0
85.4581 -1.09975 0
83.8017 0.454747 0
87.1439 3.1144 0
74.8269 4.62755 0
76.7241 2.73369 0
89.4094 -0.0517422 0
89.5796 -0.546419 0
89.4633 0.360539 0
89.3749 0.0979655 0
89.0189 -0.370729 0
88.7921 -1.51792 0
89.3493 2.09278 0
88.365 0.272932 0
83.1662 1.39876 0
81.411 0.351094 0
82.5401 -0.337489 0
83.2057 -3.11555 0
91.2552 0.33208 0
91.5354 0.877193 0
91.6936 -0.954521 0
91.586 -0.0658913 0
82.1927 -3.83577 0
83.2936 -1.83986 0
82.5067 2.71487 0
85.0719 5.99712 0
88.3178 0.32278 0
88.1941 0.0610379 0
88.3673 -0.0980245 0
88.3078 -0.334939 0
88.896 -0.183318 0
89.0585 -0.00907912 0
89.0315 0.10227 0
88.8631 0.428276 0
79.9358 0.497989 0
79.6919 1.30506 0
79.9536 -1.14762 0
80.8019 -0.319639 0
81.478 2.83007 0
79.8547 1.95067 0
79.2374 -2.83674 0
78.4027 -2.86348 0
90.7673 -0.48086 0
90.5131 -0.278247 0
90.3312 0.375266 0
91.2773 0.622936 0
79.8486 3.84938 0
80.3561 2.57309 0
79.3066 -0.824801 0
79.1347 -0.293628 0
78.9734 0.265741 0
79.6979 0.889152 0
76.5762 -0.874413 0
77.5406 -1.34811 0
92.3734 -3.65444 0
89.8921 -2.07182 0
89.3402 3.75987 0
92.7652 3.7164 0
77.9001 -0.865124 0
77.885 -0.143062 0
77.8255 0.198413 0
77.973 0.846579 0
78.2366 0.0873066 0
78.2604 0.625798 0
78.4124 -0.343386 0
78.561 -0.0201535 0
75.4436 -0.26866 0
73.1376 0.151581 0
85.1947 3.22828 0
89.2986 2.9821 0
87.9826 -2.52025 0
88.5821 -4.98472 0
77.5947 2.0672 0
77.1536 1.15327 0
77.8586 -0.0252953 0
77.6674 -0.0505247 0
80.4122 6.84184 0
78.3075 4.05974 0
80.05 -4.30172 0
79.0736 -8.11299 0
77.3846 0.784544 0
77.7781 0.424084 0
90.6297 0.529625 0
90.9703 1.15295 0
90.6696 -1.04914 0
90.6109 -0.206653 0
88.5028 -0.118592 0
88.7106 -0.0807427 0
88.6827 0.0691515 0
88.5804 0.395084 0
92.9371 0.414224 0
91.7765 1.37733 0
91.8369 -0.546409 0
93.0696 -0.673497 0
77.4863 0.107224 0
76.8678 -1.75231 0