# vtk DataFile Version 3.0
Unstructured Grid for Triangles
ASCII
DATASET UNSTRUCTURED_GRID
POINTS 29612 DOUBLE
-2.72397e-05 1.23686e-06 0
-2.95789e-05 9.5838e-07 0
-2.77865e-05 -3.1235e-07 0
0.0002024 5e-05 0
0.000203975 4.9875e-05 0
0.000205 5e-05 0
0.000203975 -4.9875e-05 0
0.0002024 -5e-05 0
0.000205 -5e-05 0
0.00020295 4.975e-05 0
0.00020295 -4.975e-05 0
0.000201925 4.9625e-05 0
0.000201925 -4.9625e-05 0
-5.29747e-05 -4.79887e-05 0
-5.5e-05 -5e-05 0
-5.24e-05 -5e-05 0
-5.05983e-05 -4.84325e-05 0
-4.98e-05 -5e-05 0
-4.72e-05 -5e-05 0
-4.83864e-05 -4.87761e-05 0
-4.46e-05 -5e-05 0
-4.59e-05 -4.84239e-05 0
-4.29453e-05 -4.24878e-05 0
-4.47486e-05 -4.20717e-05 0
-4.41829e-05 -4.36609e-05 0
-5.12578e-05 -4.62101e-05 0
-4.93077e-05 -4.53594e-05 0
-5.0706e-05 -4.39006e-05 0
-4.19243e-05 -4.77545e-05 0
-4.40307e-05 -4.71837e-05 0
-4.3691e-05 -4.86724e-05 0
-5.16129e-05 -4.20948e-05 0
-4.95355e-05 -4.15432e-05 0
-5.11646e-05 -4.0128e-05 0
-3.94697e-05 -4.81197e-05 0
-4.06302e-05 -4.55143e-05 0
-5.37257e-05 -3.88197e-05 0
-5.31099e-05 -4.07297e-05 0
-5.23982e-05 -3.88328e-05 0
-3.70063e-05 -4.72956e-05 0
-3.68e-05 -5e-05 0
-3.5308e-05 -4.85302e-05 0
-5.072e-05 -3.7867e-05 0
-4.85506e-05 -3.83975e-05 0
-4.90949e-05 -3.59622e-05 0
-3.37127e-05 -4.84331e-05 0
-3.16e-05 -5e-05 0
-3.26495e-05 -4.7415e-05 0
-5.5e-05 -3.5e-05 0
-5.31201e-05 -3.70361e-05 0
-5.28367e-05 -3.46817e-05 0
-3.63898e-05 -4.48809e-05 0
-3.83315e-05 -4.60336e-05 0
-3.26269e-06 -4.15503e-05 0
-5.99662e-06 -4.09556e-05 0
-5.46944e-06 -4.29488e-05 0
-5.29747e-05 4.79887e-05 0
-5.5e-05 5e-05 0
-5.5e-05 4.75e-05 0
-5.5e-05 4.5e-05 0
-5.34834e-05 4.29171e-05 0
-5.26943e-05 4.42611e-05 0
-5.34026e-05 4.60176e-05 0
-5.31099e-05 4.07297e-05 0
-5.11672e-05 4.01178e-05 0
-5.16129e-05 4.20948e-05 0
-5.24e-05 5e-05 0
-5.05983e-05 4.84325e-05 0
-5.31201e-05 3.70361e-05 0
-5.072e-05 3.7867e-05 0
-5.23982e-05 3.88328e-05 0
-4.8341e-05 4.69132e-05 0
-4.83679e-05 4.87539e-05 0
-5.28367e-05 3.46817e-05 0
-5.5e-05 3.25e-05 0
-5.25657e-05 3.28474e-05 0
-4.98e-05 5e-05 0
-5.30382e-05 3.125e-05 0
-4.19243e-05 4.77545e-05 0
-4.40015e-05 4.7335e-05 0
-4.25917e-05 4.63678e-05 0
-4.35138e-05 2.62661e-05 0
-4.14982e-05 2.74462e-05 0
-4.35654e-05 2.85217e-05 0
-4.59e-05 4.84239e-05 0
-4.36852e-05 4.87027e-05 0
-4.46e-05 5e-05 0
-5.33308e-05 2.92503e-05 0
-5.5e-05 2.75e-05 0
-5.23377e-05 2.76953e-05 0
-4.25282e-05 4.46352e-05 0
-4.09368e-05 4.35728e-05 0
-4.06302e-05 4.55143e-05 0
0.0002009 4.95e-05 0
0.0001998 5e-05 0
0.000199875 4.9375e-05 0
0.00019885 4.925e-05 0
0.0001972 5e-05 0
0.000197825 4.9125e-05 0
0.0001968 4.9e-05 0
0.000195775 4.8875e-05 0
0.0001946 5e-05 0
0.00019475 4.875e-05 0
0.000193725 4.8625e-05 0
0.000192 5e-05 0
0.0001927 4.85e-05 0
0.000191675 4.8375e-05 0
0.00019065 4.825e-05 0
0.0001894 5e-05 0
0.000189625 4.8125e-05 0
0.0001886 4.8e-05 0
0.0001868 5e-05 0
0.000187575 4.7875e-05 0
0.00018655 4.775e-05 0
0.000185515 4.8575e-05 0
0.0001842 5e-05 0
0.0001845 4.75e-05 0
0.000185525 4.7625e-05 0
0.000182564 4.829e-05 0
0.0001816 5e-05 0
0.00018245 4.725e-05 0
0.000183475 4.7375e-05 0
0.000181425 4.7125e-05 0
0.000180295 4.82657e-05 0
0.000179 5e-05 0
0.000179375 4.6875e-05 0
0.0001804 4.7e-05 0
0.000178168 4.80619e-05 0
0.0001764 5e-05 0
0.000177325 4.6625e-05 0
0.00017835 4.675e-05 0
0.000176428 4.76631e-05 0
0.0001763 4.65e-05 0
0.0001738 5e-05 0
0.0001751 4.84164e-05 0
0.000175275 4.6375e-05 0
0.000174025 4.75632e-05 0
0.0001712 5e-05 0
0.000172615 4.78449e-05 0
0.0001722 4.6e-05 0
0.000173225 4.6125e-05 0
0.00017015 4.575e-05 0
0.000171243 4.7381e-05 0
0.000169554 4.79999e-05 0
0.0001686 5e-05 0
0.000167507 4.79751e-05 0
0.000168498 4.64861e-05 0
0.000166 5e-05 0
0.00016558 4.71459e-05 0
0.000167135 4.62887e-05 0
0.0001681 4.55e-05 0
0.00016605 4.525e-05 0
0.000167075 4.5375e-05 0
0.000164059 4.61599e-05 0
0.00016394 4.79552e-05 0
0.000162881 4.6615e-05 0
0.000162975 4.4875e-05 0
0.000165025 4.5125e-05 0
0.000164 4.5e-05 0
0.000161754 4.58641e-05 0
0.000161722 4.78101e-05 0
0.000159956 4.58294e-05 0
0.000160925 4.4625e-05 0
0.00016195 4.475e-05 0
0.000157667 4.60322e-05 0
0.000158875 4.4375e-05 0
0.000159194 4.80155e-05 0
0.0001599 4.45e-05 0
0.00015785 4.425e-05 0
0.000155808 4.56757e-05 0
0.000155647 4.76701e-05 0
0.000154059 4.66642e-05 0
0.000153756 4.50083e-05 0
0.000154839 4.50446e-05 0
0.000156825 4.4125e-05 0
0.000151954 4.80508e-05 0
0.000154052 4.8477e-05 0
0.000153 5e-05 0
0.000154775 4.3875e-05 0
0.000152142 4.56625e-05 0
0.000152821 4.45753e-05 0
0.00015375 4.375e-05 0
0.0001504 5e-05 0
0.000149644 4.85168e-05 0
0.000151787 4.43178e-05 0
0.000152725 4.3625e-05 0
0.000150675 4.3375e-05 0
0.0001517 4.35e-05 0
0.000148119 4.50887e-05 0
0.000148072 4.75757e-05 0
0.000146584 4.63516e-05 0
0.000150008 4.6396e-05 0
0.000149351 4.4543e-05 0
0.00015061 4.46252e-05 0
0.0001476 4.3e-05 0
0.000148625 4.3125e-05 0
0.000146492 4.82975e-05 0
0.000144888 4.73562e-05 0
0.000146676 4.44259e-05 0
0.000145255 4.53656e-05 0
0.000145652 4.38669e-05 0
0.000141401 4.79821e-05 0
0.0001426 5e-05 0
0.00014 5e-05 0
0.000144374 4.38862e-05 0
0.00014555 4.275e-05 0
0.0001435 4.25e-05 0
0.000144525 4.2625e-05 0
0.000142746 4.38121e-05 0
0.000141288 4.43191e-05 0
0.000141707 4.32778e-05 0
0.00013921 4.38992e-05 0
0.000140355 4.5932e-05 0
0.000138302 4.5922e-05 0
0.000142912 4.58869e-05 0
0.000140592 4.30037e-05 0
0.00014145 4.225e-05 0
0.000136458 4.5869e-05 0
0.000137106 4.4063e-05 0
0.0001394 4.2e-05 0
0.000138259 4.28915e-05 0
0.000137484 4.77094e-05 0
0.000139166 4.78902e-05 0
0.00013586 4.78984e-05 0
0.000133449 4.78649e-05 0
0.000134717 4.61848e-05 0
0.000137256 4.25134e-05 0
0.000135323 4.24541e-05 0
0.000136325 4.1625e-05 0
0.000136122 4.2876e-05 0
0.000131206 4.47284e-05 0
0.000133168 4.56738e-05 0
0.000131773 4.65243e-05 0
0.000134756 4.40343e-05 0
0.000132747 4.36463e-05 0
0.000133483 4.26786e-05 0
0.000131081 4.1867e-05 0
0.000132382 4.22815e-05 0
0.000131507 4.3122e-05 0
0.000131059 4.80123e-05 0
0.00013325 4.125e-05 0
0.00012915 4.075e-05 0
0.00012982 4.18199e-05 0
0.000128915 4.26216e-05 0
0.000126366 4.47574e-05 0
0.000127331 4.30908e-05 0
0.000128781 4.44872e-05 0
0.000125336 4.28376e-05 0
0.000130218 4.31077e-05 0
0.000127894 4.16344e-05 0
0.000124774 4.69608e-05 0
0.000127668 4.64148e-05 0
0.000126591 4.8331e-05 0
0.000126722 4.18415e-05 0
0.000125768 4.11931e-05 0
0.000124326 4.13546e-05 0
0.00012505 4.025e-05 0
0.000122408 4.50118e-05 0
0.000120276 4.47432e-05 0
0.00012139 4.32235e-05 0
0.000124336 4.44132e-05 0
0.000123056 4.27595e-05 0
0.000122977 4.09049e-05 0
0.00012185 4.69217e-05 0
0.000122676 4.85947e-05 0
0.000120525 4.86094e-05 0
0.000121479 4.13153e-05 0
0.000119547 4.24221e-05 0
0.000120249 4.07448e-05 0
0.000119925 3.9625e-05 0
0.000119346 4.06114e-05 0
0.000117479 4.47279e-05 0
0.000114726 4.45259e-05 0
0.00011571 4.27814e-05 0
0.000119443 4.66611e-05 0
0.000117447 4.21596e-05 0
0.000118421 4.0752e-05 0
0.000117409 4.04437e-05 0
0.000116775 4.70073e-05 0
0.0001179 4.855e-05 0
0.000115473 4.84802e-05 0
0.00011685 3.925e-05 0
0.000117875 3.9375e-05 0
0.000115454 4.00551e-05 0
0.0001148 3.9e-05 0
0.000115825 3.9125e-05 0
0.000111704 4.23398e-05 0
0.000113786 4.26731e-05 0
0.000112589 4.43871e-05 0
0.000113234 4.06671e-05 0
0.000114754 4.13371e-05 0
0.0001106 4.42326e-05 0
0.000109703 4.24261e-05 0
0.00011275 3.875e-05 0
0.000113775 3.8875e-05 0
0.000110211 4.80875e-05 0
0.000108244 4.71951e-05 0
0.000109312 4.58413e-05 0
0.000111755 3.99116e-05 0
0.00010944 3.92972e-05 0
0.000110415 4.05876e-05 0
0.000108839 4.07536e-05 0
0.000106472 4.76905e-05 0
0.000107274 4.57868e-05 0
0.000108011 3.92415e-05 0
0.000106885 4.04365e-05 0
0.000106625 3.88708e-05 0
0.000105286 4.19254e-05 0
0.000105055 3.95469e-05 0
0.000104215 4.39764e-05 0
0.000106346 4.40629e-05 0
0.000100945 4.51249e-05 0
0.000102825 4.5614e-05 0
0.000101189 4.68452e-05 0
0.000107625 3.8125e-05 0
0.000105575 3.7875e-05 0
0.0001066 3.8e-05 0
0.000103352 4.76905e-05 0
0.000101803 4.8465e-05 0
0.000103685 3.89398e-05 0
0.00010245 3.8825e-05 0
0.000103525 3.7625e-05 0
0.000101092 3.99779e-05 0
0.000101267 3.82619e-05 0
0.000101382 4.2025e-05 0
0.000103187 4.05286e-05 0
0.000103359 4.24605e-05 0
9.87383e-05 4.5447e-05 0
9.99411e-05 4.35161e-05 0
9.744e-05 4.33145e-05 0
0.00010045 3.725e-05 0
0.000101475 3.7375e-05 0
9.70845e-05 4.65215e-05 0
9.52614e-05 4.67664e-05 0
9.61768e-05 4.49944e-05 0
9.9729e-05 3.87704e-05 0
9.78901e-05 3.9598e-05 0
9.85823e-05 3.81492e-05 0
9.62289e-05 3.93709e-05 0
9.74259e-05 3.81279e-05 0
9.7375e-05 3.6875e-05 0
9.63045e-05 3.76631e-05 0
9.58e-05 5e-05 0
9.32e-05 5e-05 0
9.47542e-05 4.8457e-05 0
9.49675e-05 3.85246e-05 0
9.36214e-05 3.89472e-05 0
9.40006e-05 3.74906e-05 0
9.66411e-05 4.12573e-05 0
9.44241e-05 4.07079e-05 0
9.03569e-05 4.24993e-05 0
9.21701e-05 4.02409e-05 0
9.27439e-05 4.27744e-05 0
8.89795e-05 4.09067e-05 0
9.03071e-05 4.0248e-05 0
9.25447e-05 3.77721e-05 0
9.3275e-05 3.6375e-05 0
9.07708e-05 3.87127e-05 0
9.11303e-05 3.70839e-05 0
9.11933e-05 4.55145e-05 0
9.30678e-05 4.73279e-05 0
9.11886e-05 4.82603e-05 0
8.87724e-05 3.88076e-05 0
8.99595e-05 3.75116e-05 0
9.02e-05 3.6e-05 0
8.89241e-05 3.6954e-05 0
8.36977e-05 4.59472e-05 0
8.36223e-05 4.83578e-05 0
8.20467e-05 4.74142e-05 0
8.71227e-05 4.03557e-05 0
8.61e-05 3.55e-05 0
8.68368e-05 3.65714e-05 0
8.5484e-05 3.6588e-05 0
8.47735e-05 4.02845e-05 0
8.23121e-05 4.21599e-05 0
8.26582e-05 3.98147e-05 0
8.46943e-05 4.2454e-05 0
8.38832e-05 3.78613e-05 0
8.35569e-05 3.63808e-05 0
8.44098e-05 3.6291e-05 0
8.5075e-05 3.5375e-05 0
8.51465e-05 4.77163e-05 0
8.3025e-05 3.5125e-05 0
8.22824e-05 3.68659e-05 0
8.1446e-05 3.57362e-05 0
8.05884e-05 3.71794e-05 0
7.53471e-05 4.77524e-05 0
7.38313e-05 4.73927e-05 0
7.39102e-05 4.61526e-05 0
7.9826e-05 3.58588e-05 0
7.88607e-05 3.76287e-05 0
7.81733e-05 3.57987e-05 0
8.16783e-05 3.84471e-05 0
8.07975e-05 4.04095e-05 0
7.52138e-05 4.04775e-05 0
7.67682e-05 4.17043e-05 0
7.49617e-05 4.21803e-05 0
7.52903e-05 3.84008e-05 0
7.38293e-05 3.93136e-05 0
[...]
CELL_DATA 58684
VECTORS velocity DOUBLE
73.8049 0.337387 0
85.5049 -0.000140063 0
85.4772 0.000189809 0
85.5079 -0.00034563 0
85.4789 8.74502e-05 0
85.5137 -0.00211571 0
85.4848 0.00231739 0
77.8416 -0.00417753 0
77.8386 -0.0224816 0
77.8806 -0.00540203 0
77.9505 -0.00880664 0
77.9849 -0.405112 0
77.8426 -0.109755 0
78.0497 -0.133525 0
77.8313 -0.186147 0
78.2016 -0.173139 0
77.8412 -0.110489 0
78.4916 -0.155976 0
77.8492 -0.316728 0
78.9342 -0.115483 0
77.8573 -0.111618 0
78.4708 -0.36511 0
84.5401 -2.16545 0
77.8476 0.0109685 0
77.8362 0.0509261 0
77.8481 0.0249906 0
77.8405 0.139184 0
77.8382 0.0216368 0
77.8451 0.188755 0
77.8815 0.0496285 0
77.8523 0.144139 0
77.8562 0.0310819 0
77.8115 0.145748 0
78.1032 0.164 0
77.8317 1.12531 0
77.9971 0.0666934 0
77.8661 0.173615 0
78.1602 0.353896 0
85.517 -0.00141118 0
85.5202 -0.000377771 0
85.5282 -0.00376831 0
85.5303 -0.00383406 0
85.5347 -0.0006031 0
85.5414 -0.00384087 0
85.5435 -0.00614645 0
85.5452 -0.00414755 0
85.5493 -0.000655398 0
85.555 -0.00631235 0
85.5556 -0.00577822 0
85.5589 -0.000857929 0
85.566 -0.00690164 0
85.5666 -0.00830371 0
85.5676 -0.00575808 0
85.5709 -0.00110057 0
85.5757 -0.00821272 0
85.5757 -0.00720795 0
85.5784 -0.00137998 0
85.5858 -0.0102 0
85.5857 -0.0107352 0
85.5865 -0.00656049 0
85.5912 -0.000804314 0
85.5942 -0.0133993 0
85.5968 -0.00920952 0
85.6036 -0.00132518 0
85.6058 -0.0155193 0
85.606 -0.0145718 0
85.6099 -0.0109943 0
85.6132 -0.00126446 0
85.6149 -0.0165715 0
85.6188 -0.0116706 0
85.6221 -0.00138247 0
85.625 -0.0185649 0
85.6284 -0.0142582 0
85.6338 -0.0214763 0
85.6347 -0.00114035 0
85.6384 -0.0162539 0
85.6411 -0.0102496 0
85.6461 -0.00199774 0
85.6499 -0.0231202 0
85.6614 -0.0182752 0
85.6517 -0.0189229 0
85.6605 -0.0020461 0
85.6652 -0.0120083 0
85.6627 -0.0233387 0
85.6795 -0.0151133 0
85.6763 -0.0202426 0
85.6779 -0.0271019 0
85.6852 -0.0333812 0
85.6953 -0.0213591 0
85.7069 -0.0298441 0
85.6911 -0.0260941 0
85.7024 -0.0372244 0
85.7105 -0.0287784 0
85.71 -0.0280014 0
85.717 -0.0392326 0
85.7369 -0.0356598 0
85.7215 -0.030767 0
85.7316 -0.0418196 0
85.7442 -0.0471637 0
85.7432 -0.0347409 0
85.7614 -0.0436239 0
85.7481 -0.0387189 0
85.7603 -0.0137433 0
85.7675 -0.0480426 0
85.7803 -0.0451273 0
85.7755 -0.0499651 0
85.7757 -0.0127231 0
85.7864 -0.053139 0
85.7987 -0.0596328 0
85.8045 -0.033857 0
85.8031 -0.0359476 0
85.7935 -0.0488255 0
85.8207 -0.064102 0
85.8137 -0.026598 0
85.8423 -0.058389 0
85.8283 -0.0377998 0
85.8499 -0.00291785 0
85.8503 -0.0662681 0
85.862 -0.0771949 0
85.886 -0.0679103 0
85.8977 -0.0526395 0
85.8597 -0.0407103 0
85.8935 -0.078082 0
85.9177 -0.0536855 0
85.9173 -0.0827318 0
85.8918 -0.0306896 0
85.9267 -0.0748173 0
85.9326 -0.0286383 0
85.9388 -0.0868115 0
85.9619 -0.100718 0
85.9857 -0.0611228 0
85.9822 -0.0851655 0
85.9543 -0.0398907 0
86.0169 -0.110513 0
85.964 -0.0316918 0
85.9991 -0.109506 0
86.0557 -0.124035 0
86.0659 -0.0879246 0
86.0806 -0.109347 0
86.0451 -0.103845 0
86.0689 -0.114182 0
86.0335 -0.0501301 0
86.1084 -0.132284 0
86.1319 -0.146114 0
86.1601 -0.0975596 0
86.0859 -0.0724861 0
86.1255 -0.125759 0
86.146 -0.148872 0
86.1067 -0.0300163 0
86.2105 -0.159966 0
86.2231 -0.178999 0
86.2609 -0.111114 0
86.1763 -0.0976539 0
86.235 -0.151671 0
86.2561 -0.179265 0
86.196 -0.0321569 0
86.2739 -0.207957 0
86.3226 -0.224157 0
86.336 -0.159114 0
86.3316 -0.183304 0
86.3828 -0.168369 0
86.3622 -0.233072 0
86.3618 -0.0618295 0
86.3721 -0.219375 0
86.4449 -0.224132 0
86.4175 -0.072199 0
86.512 -0.266506 0
86.5392 -0.246058 0
86.5197 -0.155683 0
86.5833 -0.119493 0
86.5167 -0.272823 0
86.5548 -0.301284 0
86.553 -0.0617796 0
86.6279 -0.303284 0
86.6789 -0.311806 0
86.597 -0.224102 0
86.6627 -0.138319 0
86.701 -0.186589 0
86.7109 -0.357497 0
86.7489 -0.119675 0
86.7779 -0.330939 0
86.8106 -0.324707 0
86.8373 -0.380119 0
86.7839 -0.00380988 0
86.9403 -0.377474 0
86.8202 -0.291717 0
86.945 -0.261433 0
87.0176 -0.304547 0
86.9911 -0.41617 0
87.0496 -0.420049 0
86.9048 -0.09445 0
87.0876 -0.404692 0
87.1173 -0.468145 0
87.1302 -0.450482 0
87.2209 -0.102645 0
87.1123 -0.356874 0
87.2915 -0.514416 0
87.3377 -0.387604 0
87.2555 -0.326032 0
87.3505 -0.541386 0
87.3377 -0.536358 0
87.2093 -0.0920166 0
87.4434 -0.592481 0
87.4808 -0.554859 0
87.6572 -0.105768 0
87.5814 -0.607474 0
87.4215 -0.425963 0
87.6782 -0.38543 0
87.7458 -0.495892 0
87.6356 -0.550377 0
87.6661 -0.655109 0
87.7148 -0.234559 0
87.8403 -0.625939 0
87.7975 -0.726238 0
87.991 -0.731704 0
87.9356 -0.00996139 0
87.9369 -0.604776 0
88.0044 -0.756286 0
87.8287 -0.187864 0
88.0701 -0.795639 0
88.1575 -0.456094 0
88.1171 -0.832078 0
88.3214 -0.253839 0
88.2873 -0.710793 0
88.2559 -0.839189 0
88.1813 -0.130748 0
88.401 -0.864297 0
88.5852 -0.840024 0
88.4229 -0.719603 0
88.4672 -0.43241 0
88.6209 -0.966568 0
88.6229 -0.378857 0
88.7888 -0.0647707 0
88.5603 -0.75869 0
88.7403 -0.953537 0
88.8316 -1.02623 0
88.8552 -0.32003 0
88.9783 -0.882347 0
89.1404 -0.965124 0
88.9349 -0.109118 0
89.2933 -0.936984 0
89.206 -1.04978 0
89.0581 -0.778883 0
89.1218 -0.374281 0
89.2393 -0.436517 0
89.3661 -1.05305 0
89.3018 -0.00502203 0
89.478 -1.125 0
89.6192 -1.06299 0
89.5737 -1.12195 0
89.5546 -0.24065 0
89.6871 -0.912359 0
89.9486 -0.91853 0
89.5308 -0.00307821 0
90.0435 -1.09611 0
90.2326 -0.925319 0
89.8628 -0.670378 0
89.6881 -0.274665 0
90.2266 -1.04828 0
89.8578 -0.338996 0
89.6853 -0.0139629 0
90.1563 -0.697277 0
90.5021 -0.945075 0
90.6769 -0.877079 0
89.8616 -0.0636082 0
90.6317 -0.587458 0
90.7702 -0.778208 0
89.7379 0.0376048 0
90.9187 -0.762657 0
91.1154 -0.626773 0
90.7309 -0.19831 0
89.5158 0.0122342 0
91.2828 -0.393169 0
90.4156 0.229767 0
90.6549 0.344125 0
91.1551 -0.242677 0
90.9306 0.0167992 0
91.629 0.00825352 0
89.6489 0.389911 0
91.6118 -0.0962738 0
91.1653 0.473603 0
91.8264 0.563286 0
89.5598 0.115189 0
91.7891 1.27105 0
91.5627 1.49914 0
88.2477 0.200474 0
92.0145 0.966235 0
91.918 1.44364 0
89.5848 1.51219 0
89.3238 0.723292 0
90.8503 1.16659 0
91.8207 1.978 0
88.4923 0.335246 0
91.338 2.86685 0
92.0009 2.22965 0
92.0155 2.45677 0
87.7654 1.42827 0
90.3742 2.98163 0
91.3964 3.25645 0
87.7425 0.236645 0
91.2153 3.75653 0
90.8702 3.62269 0
89.9294 5.23688 0
85.539 0.396864 0
91.0442 4.95148 0
89.0797 3.56687 0
87.2411 1.57579 0
86.8792 2.99808 0
90.8175 5.45295 0
89.7047 5.88374 0
85.9669 0.611597 0
89.773 6.709 0
85.4881 0.00146272 0
85.4912 0.000357908 0
85.4982 0.00323718 0
85.5 0.00353584 0
85.5039 0.000584827 0
85.5104 0.003701 0
85.5122 0.00571199 0
85.514 0.00390963 0
85.5179 0.000675975 0
85.5232 0.005966 0
85.5239 0.00520289 0
85.5268 0.000837086 0
85.5336 0.00670254 0
85.5341 0.00810227 0
85.5351 0.00559723 0
85.5383 0.00109517 0
85.5431 0.00835225 0
85.5432 0.00734091 0
85.546 0.00139529 0
85.5533 0.0101621 0
85.5534 0.0107556 0
85.561 0.0138792 0
85.5541 0.00655111 0
85.5647 0.00839196 0
85.5721 0.0138022 0
85.5646 0.00950878 0
85.5745 0.0147866 0
85.5784 0.011229 0
85.5837 0.0171233 0
85.576 0.0091281 0
85.5875 0.0121193 0
85.5941 0.0192398 0
85.5871 0.00937016 0
85.6034 0.0222221 0
85.604 0.0216645 0
85.6073 0.0158084 0
85.5986 0.0111853 0
85.6082 0.0168276 0
85.6182 0.0163368 0
85.611 0.0106384 0
85.6278 0.0282856 0
85.6238 0.0115207 0
85.6325 0.0187712 0
85.6235 0.0143122 0
85.634 0.0238947 0
85.6499 0.0275713 0
85.6511 0.0154992 0
85.6452 0.0251118 0
85.6604 0.0291124 0
85.6611 0.0331295 0
85.6727 0.0169192 0
85.6676 0.0215602 0
85.6793 0.0300775 0
85.6898 0.041778 0
85.6888 0.0203463 0
85.6966 0.0327394 0
85.7038 0.0437408 0
85.7052 0.0246521 0
85.6937 0.0308399 0
85.7177 0.0477666 0
85.7176 0.0466728 0
85.7184 0.0295119 0
85.7259 0.0212096 0
85.7346 0.0433163 0
85.695 0.0126988 0
85.7489 0.0500337 0
85.7724 0.0604345 0
85.7577 0.0507347 0
85.7443 0.0298806 0
85.7797 0.0610484 0
85.7846 0.0538011 0
85.7891 0.0266838 0
85.7683 0.0494474 0
85.799 0.0569827 0
85.8114 0.0654337 0
85.7696 0.0153122 0
85.7998 0.0471299 0
85.8377 0.0768195 0
85.8054 0.0385274 0
85.8454 0.0673511 0
85.8678 0.08137 0
85.8447 0.0594601 0
85.8554 0.024682 0
85.8737 0.072032 0
85.8892 0.0830168 0
85.8652 0.0205919 0
85.9082 0.0921436 0
85.8762 0.0674967 0
85.923 0.0767761 0
85.8891 0.0531192 0
85.9349 0.10047 0
85.9832 0.122379 0
85.9397 0.0312657 0
85.9435 0.0831743 0
86.0061 0.130025 0
85.9815 0.0940955 0
85.9308 0.0388954 0
86.0185 0.123158 0
86.0365 0.129846 0
85.9933 0.0323097 0
86.0334 0.0574742 0
86.0628 0.114947 0
86.081 0.152123 0
86.0139 0.0799259 0
86.1075 0.147369 0
86.1267 0.159566 0
86.1229 0.0544707 0
86.1042 0.0973897 0
86.1704 0.179172 0
86.1638 0.152527 0
86.0683 0.0491292 0
86.1869 0.172235 0
86.2321 0.185552 0
86.2048 0.0731201 0
86.201 0.158165 0
86.2897 0.221195 0
86.2737 0.170318 0
86.1521 0.0540315 0
86.3118 0.207683 0
86.3779 0.253271 0
86.2606 0.0716817 0
86.3623 0.201939 0
86.3395 0.0937025 0
86.404 0.211301 0
86.3185 0.119725 0
86.437 0.268547 0
86.4932 0.268778 0
86.3943 0.0729183 0
86.482 0.262571 0
86.5606 0.30309 0
86.5115 0.0773433 0
86.4518 0.221398 0
86.5488 0.257914 0
86.6094 0.305835 0
86.486 0.0469033 0
86.6196 0.278513 0
86.7241 0.361219 0
86.7008 0.301628 0
86.6325 0.0912114 0
86.7763 0.314119 0
86.585 0.117676 0
86.6212 0.267239 0
86.7673 0.348914 0
86.8802 0.392623 0
86.8903 0.402221 0
86.6022 0.00735604 0
86.9912 0.456798 0
87.0037 0.443773 0
87.0267 0.389674 0
86.9557 0.19162 0
87.0644 0.204898 0
87.044 0.436341 0
86.802 0.119116 0
87.1704 0.488432 0
87.1589 0.480686 0
87.1648 0.431217 0
87.0488 0.124595 0
87.2494 0.476351 0
87.3807 0.59327 0
87.2245 0.222673 0
87.1711 0.236671 0
87.3347 0.479075 0
87.5077 0.610983 0
87.0857 0.147543 0
87.5488 0.646993 0
87.5886 0.627375 0
87.3872 0.122859 0
87.7335 0.715161 0
87.7684 0.685115 0
87.8354 0.588423 0
87.6036 0.260119 0
87.5735 0.294666 0
87.7499 0.661198 0
87.471 0.192816 0
87.923 0.786037 0
87.9777 0.739442 0
87.9749 0.681289 0
87.6938 0.10372 0
88.1564 0.800718 0
88.1751 0.817296 0
88.0047 0.459121 0
88.2706 0.643913 0
88.0223 0.374061 0
88.2316 0.783512 0
87.9036 0.237132 0
88.3953 0.909779 0
88.422 0.878528 0
87.9449 0.189442 0
88.4934 0.809624 0
88.6847 0.929713 0
88.5931 0.910056 0
88.4706 0.212296 0
88.9027 0.971207 0
88.9497 1.03811 0
88.4253 0.63103 0
88.837 0.7712 0
88.4864 0.384864 0
89.1529 1.09154 0
88.6717 0.118912 0
89.2201 1.06004 0
89.2156 1.00391 0
88.4813 0.0951395 0
89.1451 0.909532 0
89.5542 1.07223 0
89.6518 1.07995 0
89.0946 0.271379 0
89.7304 1.0522 0
89.7829 1.12376 0
89.0682 0.68541 0
89.7974 0.73535 0
89.2642 0.262523 0
89.959 1.12003 0
89.2949 0.0960466 0
90.1155 1.04157 0
90.2106 1.02355 0
89.111 0.070828 0
90.0268 0.846312 0
90.5196 0.94728 0
90.6932 0.880579 0
89.5766 0.166385 0
90.522 0.824387 0
90.8429 0.827692 0
90.1268 0.716101 0
90.6345 0.396109 0
89.6732 0.101277 0
90.6015 0.740546 0
89.6994 0.035401 0
91.1045 0.714845 0
91.1979 0.56341 0
89.5826 0.0381007 0
90.8988 0.254785 0
91.3608 0.270359 0
91.5608 0.130874 0
89.7373 -0.1052 0
91.6586 -0.079616 0
91.7075 -0.217763 0
89.8995 -0.290123 0
91.7257 -0.251083 0
90.9245 -0.686794 0
90.1512 -0.114385 0
89.9474 -0.0143773 0
91.8703 -0.550589 0
91.6332 -0.943195 0
92.0696 -1.13242 0
89.6291 -0.0086993 0
91.3527 -1.39154 0
92.0795 -1.87525 0
89.6052 -0.131962 0
91.1832 -1.35495 0
92.0611 -2.41764 0
90.6412 -1.81662 0
89.6019 -0.678415 0
91.8739 -2.76415 0
91.7371 -3.0555 0
90.5776 -1.15815 0
90.0706 -3.19396 0
88.0808 -2.61462 0
91.3828 -3.08181 0
88.4518 -0.415312 0
91.3747 -4.03759 0
88.8711 7.29607 0
89.5835 6.53424 0
84.3316 1.92582 0
88.7732 7.24909 0
86.5862 6.6218 0
88.1249 7.87305 0
84.8955 0.759055 0
87.1691 8.06749 0
86.0279 7.93152 0
83.7027 0.960164 0
86.0952 8.45757 0
91.2903 -4.45154 0
88.6846 -0.256853 0
91.0304 -4.79262 0
89.816 -5.1745 0
89.2655 -4.45659 0
87.8336 -0.272045 0
90.0544 -5.76627 0
84.837 7.71691 0
89.4184 -7.0293 0
87.6032 -1.41103 0
89.1034 -6.79257 0
88.2585 -7.74606 0
82.5965 2.35532 0
87.8324 -7.59732 0
89.0074 -4.26534 0
88.3151 -6.89068 0
86.4976 -5.0954 0
85.5674 -0.840588 0
87.3991 -6.98934 0
86.6293 -7.39006 0
84.2239 8.14207 0
86.695 -7.40437 0
86.3727 -0.457512 0
85.6944 -7.74475 0
85.1893 -8.44554 0
84.9147 -0.565365 0
84.1294 -8.58056 0
84.6316 -6.3046 0
82.8418 -0.655453 0
83.1386 -8.72846 0
83.2427 -4.84001 0
84.8881 -3.82366 0
83.6825 -7.47639 0
82.6046 -7.81776 0
85.1948 4.38768 0
81.7406 0.529446 0
84.6206 2.93275 0
83.3295 -0.0769076 0
82.0618 -8.47806 0
83.8614 7.71023 0
81.4829 0.382995 0
83.3178 6.55548 0
81.2211 -8.33946 0
82.9196 -1.70743 0
80.5712 -6.08505 0
83.2864 8.78417 0
80.4303 2.01001 0
83.1903 8.70857 0
81.0658 7.25103 0
80.709 0.408405 0
81.6588 7.63123 0
81.1524 -6.33647 0
82.4581 -0.468916 0
80.3905 -8.46599 0
80.4148 -8.23212 0
82.0172 8.19619 0
80.1594 7.80626 0
80.0668 0.0441947 0
81.1816 8.06339 0
79.4457 5.04377 0
80.0489 2.26896 0
79.4924 -8.4112 0
80.4997 -1.08742 0
79.8214 -8.28592 0
79.0402 8.25396 0
78.8948 -7.68308 0
79.6895 -1.06931 0
79.2982 -3.37529 0
77.6672 -7.3757 0
80.6793 -4.08222 0
77.5343 -7.13414 0
79.2368 -0.29084 0
76.6387 -6.81379 0
78.8813 2.84531 0
79.4821 0.458975 0
78.6463 6.93011 0
78.9403 0.119148 0
78.4214 8.13144 0
78.1569 7.627 0
78.6559 0.18663 0
77.4348 6.67412 0
78.471 0.133649 0
78.0237 -6.37675 0
79.2324 -0.572634 0
79.2299 6.00566 0
77.7833 0.728358 0
77.0005 6.26481 0
76.5326 -6.77337 0
79.3429 -0.226602 0
74.9369 -5.79352 0
77.8092 -0.43942 0
75.7609 -5.70171 0
78.2101 2.53248 0
77.8454 0.121466 0
78.7569 -5.18652 0
77.8452 -0.112462 0
75.0764 -5.36742 0
76.4338 5.65168 0
76.5096 -4.23181 0
77.8369 -0.237027 0
75.4041 -4.59664 0
77.5541 3.12091 0
75.438 1.97807 0
75.9626 4.88783 0
77.4724 -0.977664 0
75.2318 -5.09289 0
77.7557 0.401819 0
75.8373 6.59722 0
77.3834 -2.36041 0
77.8489 -0.0832604 0
74.9188 -4.59643 0
75.5844 5.89247 0
77.7283 0.714038 0
75.5867 4.60487 0
75.2987 4.54298 0
77.746 0.382508 0
74.5201 4.04935 0
74.0609 -4.12392 0
77.7939 -0.29196 0
73.7619 -4.11914 0
76.239 -1.95729 0
77.8234 -0.197317 0
73.1543 -2.80735 0
74.5591 5.03664 0
77.6391 0.614836 0
75.8701 3.22616 0
73.7771 -2.54865 0
77.6718 -0.312668 0
73.1212 -2.32182 0
73.4629 3.70499 0
77.6778 0.261336 0
73.8731 3.49067 0
74.1854 2.8458 0
77.8439 0.0328086 0
73.3391 3.03307 0
74.506 -1.50062 0
77.5787 -0.534607 0
73.7793 -1.32381 0
72.5819 -0.841104 0
76.8075 -0.914859 0
72.6337 -0.713459 0
76.4876 0.953322 0
77.7386 0.081924 0
75.4919 2.4112 0
73.1235 2.4429 0
77.5562 0.0585886 0
72.7029 1.54248 0
77.2136 -0.232452 0
77.8192 -0.113374 0
72.6332 -0.234219 0
73.1682 -0.0917213 0
77.7639 -0.0654163 0
75.451 0.304217 0
73.3374 0.521372 0
77.7905 -0.0611362 0
76.6658 -5.61534 0
77.8301 -0.429731 0
77.8222 0.134934 0
77.4378 6.83303 0
78.3445 -7.68763 0
81.3943 -0.937473 0
79.9027 0.990564 0
80.9415 8.56552 0
77.7419 0.279836 0
74.0092 4.81895 0
73.5218 -2.81599 0
77.7777 -0.204606 0
77.7684 -0.572987 0
77.1111 -3.63945 0
77.7947 0.798478 0
77.8751 0.19481 0
77.7474 0.000443387 0
73.2022 2.03953 0
78.896 0.462659 0
78.0735 1.56389 0
78.371 -1.36637 0
79.7333 -0.685161 0
85.0026 -1.27206 0
84.5951 -8.42934 0
86.4417 8.05788 0
84.5557 0.469135 0
77.4624 1.65217 0
78.9628 7.9482 0
77.9434 -7.03035 0
78.8048 -2.29933 0
76.5927 -1.45143 0
74.1909 -0.21559 0
75.6272 5.78712 0
77.7638 1.87468 0
77.6137 -1.77916 0
74.2864 -4.60148 0
90.7875 -5.42568 0
87.5315 -0.665079 0
87.1247 0.797313 0
91.2157 4.5378 0
77.7889 -0.811648 0
77.847 -0.0417311 0
77.8235 0.14886 0
78.5915 0.749766 0
82.4019 0.736901 0
82.035 4.08906 0
80.5998 -1.9786 0
83.5361 -1.74007 0
80.9894 4.87044 0
83.7933 8.27166 0
82.6484 -8.64277 0
81.8649 -1.9117 0
85.7417 1.61069 0
86.8104 5.02862 0
85.406 -2.78956 0
86.5042 -0.0446975 0
89.5597 -0.260888 0
92.0357 -1.38135 0
91.8616 0.576041 0
88.7872 0.0306265 0
89.6696 0.000871115 0
91.2431 0.54316 0
91.0159 -0.530114 0
89.8376 0.0472239 0
78.6297 -1.43614 0
78.1818 -0.570003 0
78.0743 1.22966 0
78.7912 0.939696 0
77.9461 1.21608 0
77.8363 0.235219 0
77.8427 -0.108713 0
77.8976 -1.11677 0
88.503 0.965346 0
89.7227 1.91332 0
88.8168 -1.16198 0
88.9987 -0.174309 0
75.5913 -0.954575 0
77.7798 -0.154316 0
77.2669 -0.438741 0
77.7814 -0.368449 0
77.8097 0.207719 0
77.6766 0.964832 0
90.2895 0.967853 0
89.4379 0.150527 0
89.612 -0.00214181 0
90.0041 -1.04939 0
81.0445 -0.043046 0
80.3175 -2.8074 0
81.3191 1.79545 0
80.115 0.446313 0
77.3486 4.01168 0
76.7259 7.26882 0
76.5145 -6.21515 0
77.8557 -3.19921 0
78.389 -2.09307 0
77.1734 -2.21696 0
77.4082 4.60687 0
77.847 2.21125 0
89.8508 0.0594857 0
89.6034 0.147974 0
89.7658 -0.055661 0
90.7398 0.0668626 0
79.1466 -5.39046 0
80.1964 -5.23147 0
79.8228 4.61343 0
80.2567 8.48399 0
78.5646 -3.9532 0
79.7172 -2.30156 0
79.5445 3.10045 0
78.8304 1.52333 0
89.4836 1.14024 0
88.9128 0.139323 0
89.1663 -0.00907982 0
89.0486 -1.02435 0
77.035 1.00439 0
77.8097 0.0324369 0
89.6812 -0.0522924 0
90.3414 -0.332666 0
90.0453 0.233628 0
89.4974 0.0366642 0
78.4742 -0.947988 0
78.0521 -1.32098 0
78.7198 1.72771 0
77.9938 0.734283 0
77.8531 -0.145587 0
77.9508 -0.691557 0
77.8495 0.314528 0
77.8313 0.136294 0
73.6508 1.70276 0
76.617 1.51428 0
86.1458 -3.15395 0
89.412 -6.37619 0
90.3511 5.8431 0
85.8598 2.28001 0
76.4072 -2.29029 0
74.277 -2.87812 0
88.2044 0.153969 0
88.4875 0.875831 0
87.474 0.0764379 0
88.1221 0.839278 0
88.5034 -0.85543 0
88.3401 -0.138947 0
87.8728 -0.705079 0
87.7865 -0.0122707 0
89.3392 -0.211543 0
89.4487 -0.611629 0
89.294 0.385406 0
89.0443 0.00604693 0
77.8064 0.180987 0
77.5132 0.533268 0
76.1171 0.452493 0
73.753 0.840771 0
77.6824 -0.244164 0
77.7979 -0.171198 0
77.1525 0.276342 0
77.0465 -0.739657 0
91.8728 -2.8204 0
88.7542 -1.77104 0
89.7253 2.2568 0
92.0239 1.68448 0
77.8865 -0.0653807 0
77.9416 -0.367208 0
77.8432 0.0482815 0
78.0751 0.258951 0
88.709 -0.203002 0
88.7254 -0.528696 0
88.7552 0.353003 0
88.3472 0.113875 0
87.282 0.171116 0
87.4748 0.535307 0
87.4962 -0.628723 0
87.3769 -0.1535 0
78.1783 -0.893485 0
78.935 -2.11414 0
78.4417 1.6014 0
78.1398 1.26557 0
78.6813 2.85974 0
77.2496 1.83712 0
77.7927 -1.90944 0
78.3404 -2.76932 0
90.2293 -0.56124 0
91.1718 0.26123 0
91.3456 -0.249717 0
90.6538 0.608906 0
77.4479 -1.13616 0
77.5428 -1.35313 0
77.6072 1.07281 0
77.0418 1.29317 0
87.2973 0.561782 0
86.9871 0.170364 0
87.0511 -0.104178 0
87.2304 -0.479604 0
84.3277 4.25701 0
86.2643 7.11825 0
85.7612 -8.37565 0
85.3303 -3.34386 0
74.7458 -3.39714 0
77.0899 -3.48922 0
83.9639 -3.05314 0
84.5737 -1.09473 0
83.0071 0.450144 0
86.1838 3.11286 0
74.3044 4.59171 0
76.3118 2.71246 0
88.0388 -0.0512987 0
88.2177 -0.541344 0
88.0958 0.360028 0
88.0028 0.0983154 0
87.9464 -0.371882 0
87.7438 -1.52584 0
88.2875 2.1059 0
87.3267 0.27367 0
82.4112 1.3886 0
80.7741 0.34828 0
81.8277 -0.331618 0
82.4371 -3.09935 0
89.9993 0.307302 0
90.2783 0.836606 0
90.444 -0.910844 0
90.3584 -0.032161 0
81.4785 -3.81362 0
82.5291 -1.83126 0
81.784 2.69669 0
84.2119 5.96761 0
86.864 0.347564 0
86.7319 0.0664214 0
86.9188 -0.10327 0
86.8491 -0.363702 0
87.4899 -0.187365 0
87.6647 -0.0078831 0
87.636 0.101215 0
87.4605 0.440494 0
79.4416 0.491741 0
79.2168 1.29178 0
79.4478 -1.14122 0
80.2251 -0.312949 0
80.8249 2.80814 0
79.3437 1.93598 0
78.7366 -2.81557 0
77.9753 -2.83634 0
89.6001 -0.496803 0
89.3546 -0.285406 0
89.1852 0.384847 0
90.1011 0.651681 0
79.2752 3.82177 0
79.7884 2.54816 0
78.8806 -0.817153 0
78.7389 -0.288895 0
78.6066 0.262989 0
79.2192 0.884175 0
76.2335 -0.865737 0
77.2613 -1.33534 0
91.2519 -3.71168 0
88.8133 -2.09208 0
88.3042 3.77517 0
91.6369 3.78169 0
77.724 -0.862343 0
77.857 -0.138173 0
77.7842 0.202042 0
77.7983 0.83669 0
78.0237 0.0879184 0
78.0286 0.619008 0
78.1541 -0.344486 0
78.2724 -0.0213577 0
75.0306 -0.264248 0
72.6501 0.150286 0
84.3252 3.21348 0
88.253 2.99403 0
86.9795 -2.52046 0
87.579 -4.98344 0
77.2466 2.04856 0
76.848 1.13733 0
77.8476 -0.0240707 0
77.5222 -0.0462111 0
79.7235 6.79051 0
77.7988 4.02422 0
79.4463 -4.27146 0
78.3906 -8.04954 0
77.15 0.783057 0
77.6696 0.424167 0
89.3284 0.513035 0
89.6828 1.12101 0
89.3679 -1.02449 0
89.3141 -0.197659 0
87.0671 -0.124605 0
87.29 -0.0832786 0
87.2627 0.0715799 0
87.153 0.416645 0
91.7578 0.487403 0
90.6282 1.42333 0
90.6535 -0.590456 0
91.8961 -0.75164 0