# vtk DataFile Version 3.0
Unstructured Grid for Triangles
ASCII
DATASET UNSTRUCTURED_GRID
POINTS 29612 DOUBLE
-2.72397e-05 1.23686e-06 0
-2.95789e-05 9.5838e-07 0
-2.77865e-05 -3.1235e-07 0
0.0002024 5e-05 0
0.000203975 4.9875e-05 0
0.000205 5e-05 0
0.000203975 -4.9875e-05 0
0.0002024 -5e-05 0
0.000205 -5e-05 0
0.00020295 4.975e-05 0
0.00020295 -4.975e-05 0
0.000201925 4.9625e-05 0
0.000201925 -4.9625e-05 0
-5.29747e-05 -4.79887e-05 0
-5.5e-05 -5e-05 0
-5.24e-05 -5e-05 0
-5.05983e-05 -4.84325e-05 0
-4.98e-05 -5e-05 0
-4.72e-05 -5e-05 0
-4.83864e-05 -4.87761e-05 0
-4.46e-05 -5e-05 0
-4.59e-05 -4.84239e-05 0
-4.29453e-05 -4.24878e-05 0
-4.47486e-05 -4.20717e-05 0
-4.41829e-05 -4.36609e-05 0
-5.12578e-05 -4.62101e-05 0
-4.93077e-05 -4.53594e-05 0
-5.0706e-05 -4.39006e-05 0
-4.19243e-05 -4.77545e-05 0
-4.40307e-05 -4.71837e-05 0
-4.3691e-05 -4.86724e-05 0
-5.16129e-05 -4.20948e-05 0
-4.95355e-05 -4.15432e-05 0
-5.11646e-05 -4.0128e-05 0
-3.94697e-05 -4.81197e-05 0
-4.06302e-05 -4.55143e-05 0
-5.37257e-05 -3.88197e-05 0
-5.31099e-05 -4.07297e-05 0
-5.23982e-05 -3.88328e-05 0
-3.70063e-05 -4.72956e-05 0
-3.68e-05 -5e-05 0
-3.5308e-05 -4.85302e-05 0
-5.072e-05 -3.7867e-05 0
-4.85506e-05 -3.83975e-05 0
-4.90949e-05 -3.59622e-05 0
-3.37127e-05 -4.84331e-05 0
-3.16e-05 -5e-05 0
-3.26495e-05 -4.7415e-05 0
-5.5e-05 -3.5e-05 0
-5.31201e-05 -3.70361e-05 0
-5.28367e-05 -3.46817e-05 0
-3.63898e-05 -4.48809e-05 0
-3.83315e-05 -4.60336e-05 0
-3.26269e-06 -4.15503e-05 0
-5.99662e-06 -4.09556e-05 0
-5.46944e-06 -4.29488e-05 0
-5.29747e-05 4.79887e-05 0
-5.5e-05 5e-05 0
-5.5e-05 4.75e-05 0
-5.5e-05 4.5e-05 0
-5.34834e-05 4.29171e-05 0
-5.26943e-05 4.42611e-05 0
-5.34026e-05 4.60176e-05 0
-5.31099e-05 4.07297e-05 0
-5.11672e-05 4.01178e-05 0
-5.16129e-05 4.20948e-05 0
-5.24e-05 5e-05 0
-5.05983e-05 4.84325e-05 0
-5.31201e-05 3.70361e-05 0
-5.072e-05 3.7867e-05 0
-5.23982e-05 3.88328e-05 0
-4.8341e-05 4.69132e-05 0
-4.83679e-05 4.87539e-05 0
-5.28367e-05 3.46817e-05 0
-5.5e-05 3.25e-05 0
-5.25657e-05 3.28474e-05 0
-4.98e-05 5e-05 0
-5.30382e-05 3.125e-05 0
-4.19243e-05 4.77545e-05 0
-4.40015e-05 4.7335e-05 0
-4.25917e-05 4.63678e-05 0
-4.35138e-05 2.62661e-05 0
-4.14982e-05 2.74462e-05 0
-4.35654e-05 2.85217e-05 0
-4.59e-05 4.84239e-05 0
-4.36852e-05 4.87027e-05 0
-4.46e-05 5e-05 0
-5.33308e-05 2.92503e-05 0
-5.5e-05 2.75e-05 0
-5.23377e-05 2.76953e-05 0
-4.25282e-05 4.46352e-05 0
-4.09368e-05 4.35728e-05 0
-4.06302e-05 4.55143e-05 0
0.0002009 4.95e-05 0
0.0001998 5e-05 0
0.000199875 4.9375e-05 0
0.00019885 4.925e-05 0
0.0001972 5e-05 0
0.000197825 4.9125e-05 0
0.0001968 4.9e-05 0
0.000195775 4.8875e-05 0
0.0001946 5e-05 0
0.00019475 4.875e-05 0
0.000193725 4.8625e-05 0
0.000192 5e-05 0
0.0001927 4.85e-05 0
0.000191675 4.8375e-05 0
0.00019065 4.825e-05 0
0.0001894 5e-05 0
0.000189625 4.8125e-05 0
0.0001886 4.8e-05 0
0.0001868 5e-05 0
0.000187575 4.7875e-05 0
0.00018655 4.775e-05 0
0.000185515 4.8575e-05 0
0.0001842 5e-05 0
0.0001845 4.75e-05 0
0.000185525 4.7625e-05 0
0.000182564 4.829e-05 0
0.0001816 5e-05 0
0.00018245 4.725e-05 0
0.000183475 4.7375e-05 0
0.000181425 4.7125e-05 0
0.000180295 4.82657e-05 0
0.000179 5e-05 0
0.000179375 4.6875e-05 0
0.0001804 4.7e-05 0
0.000178168 4.80619e-05 0
0.0001764 5e-05 0
0.000177325 4.6625e-05 0
0.00017835 4.675e-05 0
0.000176428 4.76631e-05 0
0.0001763 4.65e-05 0
0.0001738 5e-05 0
0.0001751 4.84164e-05 0
0.000175275 4.6375e-05 0
0.000174025 4.75632e-05 0
0.0001712 5e-05 0
0.000172615 4.78449e-05 0
0.0001722 4.6e-05 0
0.000173225 4.6125e-05 0
0.00017015 4.575e-05 0
0.000171243 4.7381e-05 0
0.000169554 4.79999e-05 0
0.0001686 5e-05 0
0.000167507 4.79751e-05 0
0.000168498 4.64861e-05 0
0.000166 5e-05 0
0.00016558 4.71459e-05 0
0.000167135 4.62887e-05 0
0.0001681 4.55e-05 0
0.00016605 4.525e-05 0
0.000167075 4.5375e-05 0
0.000164059 4.61599e-05 0
0.00016394 4.79552e-05 0
0.000162881 4.6615e-05 0
0.000162975 4.4875e-05 0
0.000165025 4.5125e-05 0
0.000164 4.5e-05 0
0.000161754 4.58641e-05 0
0.000161722 4.78101e-05 0
0.000159956 4.58294e-05 0
0.000160925 4.4625e-05 0
0.00016195 4.475e-05 0
0.000157667 4.60322e-05 0
0.000158875 4.4375e-05 0
0.000159194 4.80155e-05 0
0.0001599 4.45e-05 0
0.00015785 4.425e-05 0
0.000155808 4.56757e-05 0
0.000155647 4.76701e-05 0
0.000154059 4.66642e-05 0
0.000153756 4.50083e-05 0
0.000154839 4.50446e-05 0
0.000156825 4.4125e-05 0
0.000151954 4.80508e-05 0
0.000154052 4.8477e-05 0
0.000153 5e-05 0
0.000154775 4.3875e-05 0
0.000152142 4.56625e-05 0
0.000152821 4.45753e-05 0
0.00015375 4.375e-05 0
0.0001504 5e-05 0
0.000149644 4.85168e-05 0
0.000151787 4.43178e-05 0
0.000152725 4.3625e-05 0
0.000150675 4.3375e-05 0
0.0001517 4.35e-05 0
0.000148119 4.50887e-05 0
0.000148072 4.75757e-05 0
0.000146584 4.63516e-05 0
0.000150008 4.6396e-05 0
0.000149351 4.4543e-05 0
0.00015061 4.46252e-05 0
0.0001476 4.3e-05 0
0.000148625 4.3125e-05 0
0.000146492 4.82975e-05 0
0.000144888 4.73562e-05 0
0.000146676 4.44259e-05 0
0.000145255 4.53656e-05 0
0.000145652 4.38669e-05 0
0.000141401 4.79821e-05 0
0.0001426 5e-05 0
0.00014 5e-05 0
0.000144374 4.38862e-05 0
0.00014555 4.275e-05 0
0.0001435 4.25e-05 0
0.000144525 4.2625e-05 0
0.000142746 4.38121e-05 0
0.000141288 4.43191e-05 0
0.000141707 4.32778e-05 0
0.00013921 4.38992e-05 0
0.000140355 4.5932e-05 0
0.000138302 4.5922e-05 0
0.000142912 4.58869e-05 0
0.000140592 4.30037e-05 0
0.00014145 4.225e-05 0
0.000136458 4.5869e-05 0
0.000137106 4.4063e-05 0
0.0001394 4.2e-05 0
0.000138259 4.28915e-05 0
0.000137484 4.77094e-05 0
0.000139166 4.78902e-05 0
0.00013586 4.78984e-05 0
0.000133449 4.78649e-05 0
0.000134717 4.61848e-05 0
0.000137256 4.25134e-05 0
0.000135323 4.24541e-05 0
0.000136325 4.1625e-05 0
0.000136122 4.2876e-05 0
0.000131206 4.47284e-05 0
0.000133168 4.56738e-05 0
0.000131773 4.65243e-05 0
0.000134756 4.40343e-05 0
0.000132747 4.36463e-05 0
0.000133483 4.26786e-05 0
0.000131081 4.1867e-05 0
0.000132382 4.22815e-05 0
0.000131507 4.3122e-05 0
0.000131059 4.80123e-05 0
0.00013325 4.125e-05 0
0.00012915 4.075e-05 0
0.00012982 4.18199e-05 0
0.000128915 4.26216e-05 0
0.000126366 4.47574e-05 0
0.000127331 4.30908e-05 0
0.000128781 4.44872e-05 0
0.000125336 4.28376e-05 0
0.000130218 4.31077e-05 0
0.000127894 4.16344e-05 0
0.000124774 4.69608e-05 0
0.000127668 4.64148e-05 0
0.000126591 4.8331e-05 0
0.000126722 4.18415e-05 0
0.000125768 4.11931e-05 0
0.000124326 4.13546e-05 0
0.00012505 4.025e-05 0
0.000122408 4.50118e-05 0
0.000120276 4.47432e-05 0
0.00012139 4.32235e-05 0
0.000124336 4.44132e-05 0
0.000123056 4.27595e-05 0
0.000122977 4.09049e-05 0
0.00012185 4.69217e-05 0
0.000122676 4.85947e-05 0
0.000120525 4.86094e-05 0
0.000121479 4.13153e-05 0
0.000119547 4.24221e-05 0
0.000120249 4.07448e-05 0
0.000119925 3.9625e-05 0
0.000119346 4.06114e-05 0
0.000117479 4.47279e-05 0
0.000114726 4.45259e-05 0
0.00011571 4.27814e-05 0
0.000119443 4.66611e-05 0
0.000117447 4.21596e-05 0
0.000118421 4.0752e-05 0
0.000117409 4.04437e-05 0
0.000116775 4.70073e-05 0
0.0001179 4.855e-05 0
0.000115473 4.84802e-05 0
0.00011685 3.925e-05 0
0.000117875 3.9375e-05 0
0.000115454 4.00551e-05 0
0.0001148 3.9e-05 0
0.000115825 3.9125e-05 0
0.000111704 4.23398e-05 0
0.000113786 4.26731e-05 0
0.000112589 4.43871e-05 0
0.000113234 4.06671e-05 0
0.000114754 4.13371e-05 0
0.0001106 4.42326e-05 0
0.000109703 4.24261e-05 0
0.00011275 3.875e-05 0
0.000113775 3.8875e-05 0
0.000110211 4.80875e-05 0
0.000108244 4.71951e-05 0
0.000109312 4.58413e-05 0
0.000111755 3.99116e-05 0
0.00010944 3.92972e-05 0
0.000110415 4.05876e-05 0
0.000108839 4.07536e-05 0
0.000106472 4.76905e-05 0
0.000107274 4.57868e-05 0
0.000108011 3.92415e-05 0
0.000106885 4.04365e-05 0
0.000106625 3.88708e-05 0
0.000105286 4.19254e-05 0
0.000105055 3.95469e-05 0
0.000104215 4.39764e-05 0
0.000106346 4.40629e-05 0
0.000100945 4.51249e-05 0
0.000102825 4.5614e-05 0
0.000101189 4.68452e-05 0
0.000107625 3.8125e-05 0
0.000105575 3.7875e-05 0
0.0001066 3.8e-05 0
0.000103352 4.76905e-05 0
0.000101803 4.8465e-05 0
0.000103685 3.89398e-05 0
0.00010245 3.8825e-05 0
0.000103525 3.7625e-05 0
0.000101092 3.99779e-05 0
0.000101267 3.82619e-05 0
0.000101382 4.2025e-05 0
0.000103187 4.05286e-05 0
0.000103359 4.24605e-05 0
9.87383e-05 4.5447e-05 0
9.99411e-05 4.35161e-05 0
9.744e-05 4.33145e-05 0
0.00010045 3.725e-05 0
0.000101475 3.7375e-05 0
9.70845e-05 4.65215e-05 0
9.52614e-05 4.67664e-05 0
9.61768e-05 4.49944e-05 0
9.9729e-05 3.87704e-05 0
9.78901e-05 3.9598e-05 0
9.85823e-05 3.81492e-05 0
9.62289e-05 3.93709e-05 0
9.74259e-05 3.81279e-05 0
9.7375e-05 3.6875e-05 0
9.63045e-05 3.76631e-05 0
9.58e-05 5e-05 0
9.32e-05 5e-05 0
9.47542e-05 4.8457e-05 0
9.49675e-05 3.85246e-05 0
9.36214e-05 3.89472e-05 0
9.40006e-05 3.74906e-05 0
9.66411e-05 4.12573e-05 0
9.44241e-05 4.07079e-05 0
9.03569e-05 4.24993e-05 0
9.21701e-05 4.02409e-05 0
9.27439e-05 4.27744e-05 0
8.89795e-05 4.09067e-05 0
9.03071e-05 4.0248e-05 0
9.25447e-05 3.77721e-05 0
9.3275e-05 3.6375e-05 0
9.07708e-05 3.87127e-05 0
9.11303e-05 3.70839e-05 0
9.11933e-05 4.55145e-05 0
9.30678e-05 4.73279e-05 0
9.11886e-05 4.82603e-05 0
8.87724e-05 3.88076e-05 0
8.99595e-05 3.75116e-05 0
9.02e-05 3.6e-05 0
8.89241e-05 3.6954e-05 0
8.36977e-05 4.59472e-05 0
8.36223e-05 4.83578e-05 0
8.20467e-05 4.74142e-05 0
8.71227e-05 4.03557e-05 0
8.61e-05 3.55e-05 0
8.68368e-05 3.65714e-05 0
8.5484e-05 3.6588e-05 0
8.47735e-05 4.02845e-05 0
8.23121e-05 4.21599e-05 0
8.26582e-05 3.98147e-05 0
8.46943e-05 4.2454e-05 0
8.38832e-05 3.78613e-05 0
8.35569e-05 3.63808e-05 0
8.44098e-05 3.6291e-05 0
8.5075e-05 3.5375e-05 0
8.51465e-05 4.77163e-05 0
8.3025e-05 3.5125e-05 0
8.22824e-05 3.68659e-05 0
8.1446e-05 3.57362e-05 0
8.05884e-05 3.71794e-05 0
7.53471e-05 4.77524e-05 0
7.38313e-05 4.73927e-05 0
7.39102e-05 4.61526e-05 0
7.9826e-05 3.58588e-05 0
7.88607e-05 3.76287e-05 0
7.81733e-05 3.57987e-05 0
8.16783e-05 3.84471e-05 0
8.07975e-05 4.04095e-05 0
7.52138e-05 4.04775e-05 0
7.67682e-05 4.17043e-05 0
7.49617e-05 4.21803e-05 0
7.52903e-05 3.84008e-05 0
7.38293e-05 3.93136e-05 0
[...]
CELL_DATA 58684
VECTORS velocity DOUBLE
74.2925 0.337141 0
86.9699 4.55551e-05 0
86.943 -1.1243e-06 0
86.9756 -0.00200468 0
86.948 0.00203506 0
86.981 -0.00264637 0
86.9539 0.00296392 0
77.8842 -0.00127405 0
77.9012 -0.0246443 0
78.0182 -0.00241432 0
78.1379 -0.00477493 0
78.2046 -0.409701 0
77.9397 -0.109697 0
78.2874 -0.135087 0
77.9172 -0.1848 0
78.4927 -0.170195 0
77.885 -0.112781 0
78.8631 -0.157525 0
77.9724 -0.317754 0
79.3824 -0.11122 0
77.8972 -0.115987 0
78.8311 -0.370087 0
85.4945 -2.17281 0
77.8638 0.0124395 0
77.8692 0.051475 0
77.8631 0.0249523 0
77.9118 0.142431 0
77.9009 0.0235157 0
77.9051 0.188476 0
78.0149 0.0490479 0
77.8945 0.14537 0
77.9671 0.0333851 0
77.858 0.14388 0
78.3616 0.162637 0
78.0692 1.134 0
78.2093 0.0687021 0
77.9059 0.17962 0
78.4425 0.354622 0
86.988 0.000953531 0
86.9936 -2.63683e-05 0
87.0026 -0.00610095 0
87.0044 -0.00233351 0
87.0156 -6.92045e-05 0
87.0241 -0.00533449 0
87.0264 -0.0073013 0
87.0299 -0.00283137 0
87.0389 -0.000169569 0
87.0454 -0.00763746 0
87.0463 -0.00496739 0
87.0567 -0.000794089 0
87.065 -0.00855278 0
87.0664 -0.00907261 0
87.069 -0.00443545 0
87.0777 -0.00078195 0
87.0835 -0.00964831 0
87.084 -0.0072619 0
87.0938 -0.00182937 0
87.1023 -0.0119911 0
87.1035 -0.0117098 0
87.106 -0.00591045 0
87.1169 -0.000574687 0
87.1185 -0.0142291 0
87.1269 -0.00937866 0
87.1384 -0.000964655 0
87.1391 -0.0172456 0
87.1415 -0.0139454 0
87.1499 -0.011854 0
87.1573 -0.00132082 0
87.1582 -0.0168163 0
87.1664 -0.0126849 0
87.1759 -0.00218425 0
87.1761 -0.0191225 0
87.1824 -0.0141203 0
87.1898 -0.0231591 0
87.1992 -0.00111863 0
87.2014 -0.0175658 0
87.207 -0.0112718 0
87.2199 -0.00224229 0
87.2215 -0.0240783 0
87.2429 -0.0200815 0
87.2255 -0.0193869 0
87.2445 -0.0015725 0
87.2524 -0.0125535 0
87.2466 -0.0247545 0
87.2756 -0.0152544 0
87.2706 -0.020453 0
87.2675 -0.0283242 0
87.2792 -0.033762 0
87.3005 -0.0217575 0
87.3148 -0.0309693 0
87.2917 -0.02629 0
87.3081 -0.0375733 0
87.3261 -0.0285649 0
87.3217 -0.0289932 0
87.3306 -0.0399071 0
87.362 -0.0378889 0
87.3448 -0.0317712 0
87.3524 -0.0422067 0
87.3702 -0.048997 0
87.3761 -0.0368656 0
87.4006 -0.0442978 0
87.3791 -0.0392802 0
87.4029 -0.0126326 0
87.4053 -0.0497184 0
87.4245 -0.0473128 0
87.4161 -0.0507558 0
87.4256 -0.0144909 0
87.4308 -0.0543925 0
87.4468 -0.0595609 0
87.4636 -0.0341683 0
87.4605 -0.0366454 0
87.4466 -0.0495039 0
87.48 -0.0640873 0
87.4778 -0.026291 0
87.5076 -0.0589427 0
87.4943 -0.0381683 0
87.5269 -0.00350937 0
87.5184 -0.0671377 0
87.5327 -0.0752098 0
87.5623 -0.0674931 0
87.5796 -0.0509414 0
87.5359 -0.0401554 0
87.5712 -0.0768886 0
87.6032 -0.0519332 0
87.5999 -0.0804521 0
87.5736 -0.0284647 0
87.6121 -0.0732441 0
87.622 -0.0280377 0
87.6243 -0.0843314 0
87.65 -0.0965067 0
87.6783 -0.05738 0
87.6741 -0.0802997 0
87.6459 -0.0376312 0
87.7115 -0.103967 0
87.6574 -0.0302568 0
87.6924 -0.10355 0
87.7535 -0.116716 0
87.7627 -0.0823828 0
87.778 -0.0996115 0
87.7404 -0.0976189 0
87.7676 -0.107252 0
87.7318 -0.0457202 0
87.8079 -0.123269 0
87.8321 -0.135718 0
87.8569 -0.0888601 0
87.7847 -0.0650315 0
87.8268 -0.116175 0
87.8461 -0.136642 0
87.8044 -0.0275316 0
87.9087 -0.147585 0
87.921 -0.162211 0
87.9538 -0.100337 0
87.8735 -0.0859701 0
87.9326 -0.136141 0
87.9525 -0.163157 0
87.8909 -0.0295034 0
87.9702 -0.187866 0
88.0154 -0.201295 0
88.0235 -0.142189 0
88.023 -0.164553 0
88.0663 -0.151311 0
88.0531 -0.208842 0
88.0436 -0.0551021 0
88.0614 -0.196736 0
88.1279 -0.202035 0
88.0951 -0.0665208 0
88.1884 -0.239634 0
88.2114 -0.221757 0
88.1899 -0.141543 0
88.2437 -0.108786 0
88.1925 -0.245483 0
88.2272 -0.269874 0
88.2165 -0.0552251 0
88.292 -0.275699 0
88.3363 -0.283196 0
88.2614 -0.203294 0
88.316 -0.129985 0
88.3508 -0.168529 0
88.3662 -0.322917 0
88.3917 -0.111463 0
88.4243 -0.303434 0
88.4528 -0.298373 0
88.4759 -0.348169 0
88.42 -0.00568222 0
88.5675 -0.348359 0
88.4604 -0.269209 0
88.5692 -0.245052 0
88.6328 -0.28639 0
88.6137 -0.387182 0
88.6648 -0.391372 0
88.5292 -0.0885109 0
88.699 -0.381517 0
88.7247 -0.439211 0
88.7368 -0.422655 0
88.8119 -0.0991582 0
88.719 -0.336614 0
88.8799 -0.488404 0
88.9213 -0.371527 0
88.8475 -0.313419 0
88.9343 -0.516713 0
88.9203 -0.509723 0
88.8022 -0.0888437 0
89.0159 -0.568511 0
89.0503 -0.534797 0
89.2075 -0.104762 0
89.1422 -0.587969 0
88.9965 -0.41118 0
89.2302 -0.377491 0
89.2907 -0.487123 0
89.1923 -0.534122 0
89.2165 -0.63887 0
89.262 -0.231736 0
89.3781 -0.619342 0
89.3362 -0.711188 0
89.5143 -0.724977 0
89.4638 -0.0119421 0
89.4689 -0.597133 0
89.5257 -0.750652 0
89.3661 -0.185362 0
89.5858 -0.790184 0
89.6707 -0.457191 0
89.6301 -0.826211 0
89.822 -0.257349 0
89.7902 -0.715261 0
89.7575 -0.84118 0
89.6912 -0.129278 0
89.8935 -0.869313 0
90.066 -0.849818 0
89.9175 -0.722535 0
89.9578 -0.437093 0
90.0981 -0.976373 0
90.1013 -0.383969 0
90.2509 -0.0662048 0
90.0442 -0.769422 0
90.2095 -0.968609 0
90.2953 -1.04 0
90.3152 -0.327572 0
90.4354 -0.899774 0
90.5868 -0.986747 0
90.3859 -0.11064 0
90.7301 -0.961584 0
90.6464 -1.07257 0
90.5102 -0.793926 0
90.5626 -0.383896 0
90.6745 -0.44955 0
90.797 -1.08058 0
90.7177 -0.00734485 0
90.902 -1.15277 0
91.0346 -1.09546 0
90.9914 -1.15259 0
90.9553 -0.252135 0
91.0978 -0.940449 0
91.3435 -0.955637 0
90.9162 -0.00545972 0
91.4333 -1.13454 0
91.6085 -0.965691 0
91.2596 -0.698555 0
91.0815 -0.28924 0
91.6043 -1.091 0
91.2436 -0.358886 0
91.0361 -0.0173505 0
91.5323 -0.735095 0
91.8642 -0.994223 0
92.0289 -0.928719 0
91.2123 -0.0783684 0
91.9761 -0.634881 0
92.1157 -0.832723 0
91.0645 0.0295567 0
92.2537 -0.821685 0
92.4402 -0.689731 0
92.0597 -0.245231 0
90.8049 0.00914196 0
92.5951 -0.462803 0
91.7236 0.193056 0
91.9545 0.299874 0
92.4666 -0.307492 0
92.243 -0.0406878 0
92.9221 -0.0685067 0
90.9223 0.371347 0
92.9074 -0.173437 0
92.4512 0.40903 0
93.1034 0.477375 0
90.8416 0.107422 0
93.0525 1.18864 0
92.8201 1.4229 0
89.4307 0.198329 0
93.2804 0.875265 0
93.1743 1.36142 0
90.8032 1.48063 0
90.5627 0.705729 0
92.1078 1.11186 0
93.0668 1.90039 0
89.6864 0.331288 0
92.561 2.79741 0
93.2445 2.13925 0
93.2562 2.36864 0
88.9017 1.41931 0
91.5757 2.92902 0
92.6115 3.18741 0
88.8874 0.233027 0
92.4225 3.69247 0
92.0712 3.57309 0
91.0839 5.2074 0
86.5596 0.397595 0
92.2311 4.90358 0
90.23 3.5371 0
88.3472 1.57068 0
87.9462 2.99559 0
91.9917 5.41263 0
90.8432 5.86406 0
87.0044 0.610322 0
90.914 6.69287 0
86.9607 -0.000551396 0
86.9666 -3.88432e-05 0
86.9747 0.0054215 0
86.9764 0.00192732 0
86.9869 7.86963e-05 0
86.9951 0.00507922 0
86.9971 0.00623946 0
87.001 0.00185509 0
87.0092 0.000236355 0
87.0155 0.00743922 0
87.0163 0.00451696 0
87.0262 0.000760939 0
87.034 0.00809136 0
87.0353 0.00867658 0
87.0379 0.00425587 0
87.0464 0.000757595 0
87.0521 0.00945839 0
87.0527 0.00694709 0
87.0625 0.00181365 0
87.0708 0.011789 0
87.0721 0.0115077 0
87.0835 0.0151427 0
87.0745 0.00574646 0
87.0915 0.00962653 0
87.1044 0.0151499 0
87.0952 0.00946741 0
87.1102 0.0141696 0
87.1186 0.0119582 0
87.1252 0.0188784 0
87.115 0.009475 0
87.1351 0.0128408 0
87.1428 0.0210198 0
87.1346 0.0100465 0
87.1589 0.0239827 0
87.1622 0.0217966 0
87.1678 0.0170033 0
87.155 0.012334 0
87.1707 0.0179727 0
87.1872 0.0176065 0
87.1764 0.011532 0
87.2028 0.0294669 0
87.2022 0.0111603 0
87.2131 0.020355 0
87.1985 0.015249 0
87.217 0.0250599 0
87.2383 0.0286466 0
87.246 0.0155609 0
87.2345 0.0260361 0
87.2559 0.0310588 0
87.2585 0.0337389 0
87.2815 0.0177034 0
87.2716 0.021894 0
87.2857 0.0311074 0
87.2999 0.0432595 0
87.3066 0.0211323 0
87.3126 0.0351069 0
87.3212 0.0452721 0
87.3334 0.0264251 0
87.3156 0.0318253 0
87.3423 0.0499899 0
87.3445 0.0474704 0
87.3524 0.0304721 0
87.363 0.0218919 0
87.3725 0.0440239 0
87.3177 0.0143581 0
87.3881 0.0512123 0
87.4191 0.0605739 0
87.4025 0.0511847 0
87.3883 0.0309568 0
87.4307 0.060842 0
87.4371 0.0543885 0
87.452 0.0265829 0
87.4201 0.0503035 0
87.4586 0.0569047 0
87.4742 0.0656431 0
87.426 0.0159433 0
87.4622 0.0469248 0
87.5074 0.0756585 0
87.4704 0.0387858 0
87.5176 0.067832 0
87.5446 0.0799763 0
87.5206 0.0586872 0
87.535 0.0242998 0
87.5533 0.0698222 0
87.5707 0.0822376 0
87.5475 0.020887 0
87.5924 0.0899259 0
87.5598 0.0647222 0
87.6127 0.0754646 0
87.5742 0.0515013 0
87.6229 0.0966981 0
87.6774 0.116642 0
87.633 0.0298532 0
87.6357 0.0795851 0
87.7005 0.123676 0
87.6769 0.0878085 0
87.6224 0.036616 0
87.7146 0.115132 0
87.7342 0.121184 0
87.6901 0.0299173 0
87.7329 0.0549981 0
87.7625 0.106295 0
87.7803 0.14033 0
87.7111 0.0745146 0
87.8074 0.137145 0
87.8259 0.145948 0
87.8191 0.0505401 0
87.8033 0.0910507 0
87.8696 0.16294 0
87.8615 0.13866 0
87.7663 0.0457754 0
87.8852 0.155919 0
87.9296 0.167491 0
87.8978 0.0669362 0
87.8972 0.14262 0
87.9821 0.199599 0
87.9669 0.152363 0
87.848 0.0484514 0
88.0033 0.187103 0
88.0642 0.227163 0
87.9484 0.0656665 0
88.0489 0.180707 0
88.0219 0.084747 0
88.086 0.189468 0
88.0031 0.106643 0
88.1181 0.241053 0
88.1681 0.241837 0
88.0717 0.066687 0
88.1587 0.235646 0
88.2287 0.272511 0
88.176 0.0703418 0
88.1292 0.198078 0
88.2166 0.232885 0
88.2712 0.276776 0
88.1521 0.0417132 0
88.2798 0.252448 0
88.3732 0.327599 0
88.3513 0.275028 0
88.2833 0.0835777 0
88.4178 0.28728 0
88.2422 0.106027 0
88.2806 0.242108 0
88.411 0.318111 0
88.5103 0.361927 0
88.5181 0.37048 0
88.2565 0.00688759 0
88.609 0.422033 0
88.6186 0.411321 0
88.6377 0.364113 0
88.5724 0.179702 0
88.67 0.196953 0
88.6541 0.407616 0
88.4355 0.110929 0
88.7673 0.461419 0
88.7573 0.451983 0
88.762 0.406656 0
88.6538 0.118079 0
88.838 0.454411 0
88.9551 0.566312 0
88.814 0.212435 0
88.7643 0.225801 0
88.913 0.458411 0
89.0707 0.591794 0
88.6889 0.139896 0
89.1075 0.624951 0
89.1432 0.60962 0
88.9594 0.120108 0
89.2758 0.698522 0
89.3069 0.671345 0
89.371 0.580446 0
89.1582 0.255631 0
89.129 0.289382 0
89.2906 0.649204 0
89.0368 0.186353 0
89.4491 0.774863 0
89.4996 0.733232 0
89.4988 0.676989 0
89.2423 0.103154 0
89.6648 0.79924 0
89.681 0.817312 0
89.5275 0.460242 0
89.774 0.644575 0
89.5432 0.373123 0
89.734 0.784691 0
89.435 0.237361 0
89.8871 0.915761 0
89.9104 0.886643 0
89.4707 0.188104 0
89.98 0.81737 0
90.1572 0.944655 0
90.072 0.920968 0
89.9591 0.215351 0
90.3625 0.990244 0
90.4059 1.05635 0
89.9152 0.638208 0
90.3023 0.783728 0
89.9743 0.389453 0
90.5983 1.1137 0
90.1434 0.121056 0
90.6612 1.08335 0
90.6558 1.02714 0
89.9658 0.0958007 0
90.5892 0.9298 0
90.9755 1.10147 0
91.068 1.11188 0
90.5349 0.279797 0
91.1413 1.086 0
91.1901 1.15774 0
90.5157 0.703655 0
91.2002 0.765214 0
90.6909 0.271918 0
91.3565 1.15684 0
90.7149 0.101309 0
91.5033 1.08102 0
91.5932 1.06564 0
90.5468 0.0707106 0
91.4146 0.881645 0
91.8837 0.995897 0
92.0473 0.931624 0
90.9728 0.17915 0
91.8827 0.872075 0
92.186 0.88277 0
91.5077 0.752114 0
91.9742 0.440306 0
91.0527 0.112962 0
91.9541 0.789693 0
91.062 0.0415805 0
92.4339 0.775744 0
92.5208 0.626602 0
90.9626 0.0393011 0
92.2233 0.31059 0
92.6718 0.340862 0
92.8608 0.204594 0
91.0466 -0.0969185 0
92.9504 -0.000214804 0
92.9966 -0.138412 0
91.1911 -0.26678 0
93.0111 -0.168757 0
92.2041 -0.629822 0
91.4764 -0.0865519 0
91.285 0.0051906 0
93.1462 -0.463003 0
92.9023 -0.865665 0
93.3353 -1.04184 0
90.9363 -0.00540796 0
92.6075 -1.3206 0
93.332 -1.78421 0
90.8872 -0.123227 0
92.4395 -1.28866 0
93.304 -2.32899 0
91.8729 -1.76184 0
90.8556 -0.657945 0
93.1084 -2.68182 0
92.9667 -2.97735 0
91.8386 -1.10951 0
91.2619 -3.14853 0
89.2106 -2.60215 0
92.6037 -3.01674 0
89.6427 -0.406855 0
92.5832 -3.9736 0
89.9769 7.29643 0
90.7174 6.5199 0
85.2697 1.92873 0
89.87 7.25369 0
87.6142 6.63936 0
89.2051 7.88826 0
85.8708 0.757033 0
88.2157 8.09271 0
87.033 7.96556 0
84.5977 0.96341 0
87.1081 8.49301 0
92.4901 -4.39547 0
89.8892 -0.252237 0
92.2196 -4.7433 0
90.9687 -5.146 0
90.4135 -4.42956 0
88.9814 -0.268846 0
91.2095 -5.73767 0
85.792 7.75992 0
90.5479 -7.02042 0
88.7231 -1.40176 0
90.2217 -6.78607 0
89.3487 -7.75428 0
83.425 2.37019 0
88.9076 -7.61016 0
90.144 -4.24199 0
89.4038 -6.89417 0
87.528 -5.10316 0
86.586 -0.839213 0
88.4569 -7.00275 0
87.6551 -7.41467 0
85.1629 8.18827 0
87.729 -7.42621 0
87.4326 -0.454862 0
86.6876 -7.78008 0
86.1708 -8.48755 0
85.8939 -0.56439 0
85.0713 -8.63236 0
85.5814 -6.33484 0
83.687 -0.653627 0
84.0498 -8.78448 0
84.1128 -4.87232 0
85.8522 -3.83573 0
84.5956 -7.52054 0
83.4754 -7.87256 0
86.1688 4.39859 0
82.4986 0.52949 0
85.5708 2.94146 0
84.2048 -0.0733907 0
82.9281 -8.53976 0
84.7823 7.75511 0
82.2215 0.385154 0
84.2013 6.59857 0
82.0557 -8.40334 0
83.7675 -1.71873 0
81.3301 -6.13401 0
84.2032 8.83968 0
81.0859 2.02805 0
84.0998 8.76447 0
81.8516 7.30862 0
81.3762 0.413994 0
82.4962 7.68473 0
81.9455 -6.38215 0
83.2696 -0.475332 0
81.1957 -8.53155 0
81.2116 -8.29839 0
82.8737 8.25398 0
80.9318 7.86809 0
80.6695 0.0409437 0
82.0034 8.12337 0
80.1062 5.08925 0
80.6747 2.2914 0
80.266 -8.47881 0
81.1528 -1.10075 0
80.6016 -8.35428 0
79.8031 8.3211 0
79.6335 -7.74651 0
80.2631 -1.07881 0
79.8964 -3.40306 0
78.3646 -7.44096 0
81.3942 -4.11415 0
78.2213 -7.19549 0
79.7437 -0.289796 0
77.3024 -6.87479 0
79.4221 2.86792 0
80.0255 0.461528 0
79.3654 6.98592 0
79.3903 0.115825 0
79.1677 8.19766 0
78.8746 7.69345 0
79.0612 0.184754 0
78.1024 6.73234 0
78.8279 0.133375 0
78.6862 -6.43224 0
79.7422 -0.575515 0
79.9152 6.05464 0
77.9465 0.73865 0
77.6538 6.32191 0
77.1846 -6.83565 0
79.8562 -0.231265 0
75.5484 -5.8437 0
77.9118 -0.441397 0
76.3659 -5.7515 0
78.6742 2.55204 0
77.8599 0.120181 0
79.4009 -5.2353 0
77.8626 -0.113104 0
75.6659 -5.41485 0
77.0536 5.70383 0
77.0562 -4.27393 0
77.8894 -0.244716 0
75.9604 -4.63654 0
78.0428 3.14559 0
75.8881 1.99725 0
76.5449 4.93003 0
77.699 -0.986335 0
75.8111 -5.13973 0
77.8406 0.402587 0
76.4817 6.6542 0
77.7934 -2.38048 0
77.8612 -0.0845664 0
75.4745 -4.6353 0
76.2053 5.94547 0
77.8757 0.717539 0
76.141 4.64576 0
75.868 4.58619 0
77.8356 0.380459 0
75.0662 4.08271 0
74.622 -4.16462 0
77.8606 -0.295954 0
74.3197 -4.15688 0
76.6584 -1.98166 0
77.8673 -0.201977 0
73.6914 -2.83244 0
75.1334 5.08055 0
77.8054 0.622317 0
76.3504 3.25371 0
74.2953 -2.57305 0
77.7846 -0.311319 0
73.6527 -2.34398 0
74.0144 3.73788 0
77.7959 0.266463 0
74.4113 3.52131 0
74.7063 2.87281 0
77.8607 0.0355739 0
73.8774 3.06015 0
74.9787 -1.51397 0
77.7442 -0.542307 0
74.2764 -1.33399 0
73.1096 -0.850167 0
77.1215 -0.926087 0
73.1593 -0.719952 0
76.835 0.96036 0
77.814 0.0768388 0
75.9634 2.43912 0
73.656 2.46417 0
77.7004 0.0596175 0
73.2324 1.55662 0
77.4451 -0.236378 0
77.8499 -0.111697 0
73.1574 -0.236754 0
73.678 -0.0927838 0
77.8321 -0.0660958 0
75.8663 0.308257 0
73.8434 0.527751 0
77.8399 -0.062293 0
77.2653 -5.66577 0
77.9478 -0.433161 0
77.8529 0.132158 0
78.1202 6.89493 0
79.0723 -7.75171 0
82.1271 -0.947349 0
80.4993 0.99787 0
81.7681 8.63049 0
77.816 0.279658 0
74.5818 4.86111 0
74.0502 -2.84154 0
77.8183 -0.200424 0
77.9021 -0.572607 0
77.6276 -3.67547 0
77.9773 0.801844 0
77.9171 0.200998 0
77.8269 -0.000760312 0
73.7243 2.05578 0
79.3497 0.466735 0
78.4321 1.57782 0
78.7618 -1.37419 0
80.3088 -0.692093 0
85.984 -1.27031 0
85.5522 -8.47728 0
87.4626 8.08914 0
85.5113 0.468903 0
77.7922 1.66582 0
79.7181 8.01467 0
78.63 -7.09483 0
79.3104 -2.31745 0
76.9431 -1.46008 0
74.6668 -0.223084 0
76.2392 5.83949 0
78.1149 1.89429 0
77.9511 -1.79057 0
74.8484 -4.64044 0
91.9628 -5.38574 0
88.6583 -0.661401 0
88.2272 0.790797 0
92.4151 4.47803 0
77.9726 -0.815255 0
77.8897 -0.0453215 0
77.882 0.148212 0
78.9884 0.758417 0
83.2112 0.736003 0
82.8396 4.11181 0
81.2755 -1.99223 0
84.4256 -1.74858 0
81.7456 4.9059 0
84.7188 8.32038 0
83.5384 -8.70097 0
82.6417 -1.92216 0
86.7659 1.61302 0
87.8564 5.03398 0
86.4047 -2.79447 0
87.5789 -0.041716 0
90.83 -0.248786 0
93.2946 -1.2932 0
93.1362 0.48804 0
90.005 0.0279658 0
91.0291 0.00371189 0
92.5627 0.608808 0
92.3403 -0.590224 0
91.1678 0.0324579 0
79.0604 -1.44921 0
78.4826 -0.574293 0
78.4035 1.23826 0
79.2297 0.952623 0
78.2374 1.22781 0
77.8885 0.241891 0
77.8595 -0.106291 0
78.1574 -1.12871 0
89.6832 0.953055 0
90.9284 1.87903 0
90.0108 -1.14415 0
90.2286 -0.169948 0
75.9972 -0.959709 0
77.8514 -0.155691 0
77.4844 -0.439341 0
77.8707 -0.376028 0
77.856 0.204419 0
77.8942 0.967318 0
91.666 1.01193 0
90.8479 0.159009 0
90.9843 -0.0052662 0
91.3971 -1.08783 0
81.7465 -0.0399452 0
80.975 -2.83079 0
82.0556 1.80816 0
80.7298 0.448603 0
77.8802 4.05252 0
77.4052 7.33073 0
77.1425 -6.2724 0
78.338 -3.23333 0
78.8261 -2.11459 0
77.5658 -2.23211 0
77.9781 4.64562 0
78.2538 2.22737 0
91.1716 0.043581 0
90.8943 0.140678 0
91.0848 -0.0469594 0
92.0649 0.116962 0
79.8287 -5.43339 0
80.9202 -5.26993 0
80.4972 4.64888 0
81.0607 8.55061 0
79.1476 -3.98711 0
80.3204 -2.3173 0
80.1557 3.12269 0
79.2963 1.5394 0
90.9102 1.16788 0
90.3658 0.144765 0
90.5955 -0.0119682 0
90.4976 -1.04494 0
77.3284 1.0161 0
77.8466 0.0289689 0
91.0498 -0.0607339 0
91.6956 -0.371211 0
91.409 0.258823 0
90.889 0.039708 0
78.8563 -0.957869 0
78.3753 -1.33415 0
79.1753 1.7458 0
78.2463 0.735662 0
77.8953 -0.147042 0
78.1603 -0.69999 0
77.9727 0.315334 0
77.8697 0.136261 0
74.1553 1.71498 0
76.9804 1.52539 0
87.1714 -3.15808 0
90.5406 -6.36422 0
91.5125 5.81106 0
86.8808 2.27829 0
76.8383 -2.31673 0
74.7878 -2.90322 0
89.7129 0.157623 0
89.9729 0.885099 0
89.0392 0.0738898 0
89.6326 0.83571 0
89.9901 -0.861802 0
89.8375 -0.142418 0
89.4047 -0.696184 0
89.3274 -0.0144353 0
90.757 -0.220104 0
90.872 -0.63295 0
90.7223 0.398368 0
90.4853 0.00817809 0
77.8587 0.178794 0
77.6916 0.540055 0
76.4784 0.452052 0
74.247 0.846462 0
77.7981 -0.250654 0
77.8421 -0.169299 0
77.393 0.274309 0
77.3265 -0.751948 0
93.1078 -2.73395 0
89.9305 -1.75026 0
90.9196 2.2203 0
93.276 1.59231 0
78.0344 -0.0630613 0
78.14 -0.364909 0
77.896 0.0535148 0
78.3227 0.261315 0
90.1795 -0.20825 0
90.1991 -0.537764 0
90.223 0.360487 0
89.8435 0.115936 0
88.8651 0.163715 0
89.0421 0.517676 0
89.0641 -0.603289 0
88.9543 -0.146095 0
78.4973 -0.899469 0
79.4336 -2.13819 0
78.8657 1.6144 0
78.4799 1.27348 0
79.2049 2.88452 0
77.6092 1.85283 0
78.15 -1.92452 0
78.8261 -2.797 0
91.5185 -0.527749 0
92.4845 0.325697 0
92.6552 -0.320746 0
91.9414 0.562933 0
77.7078 -1.15046 0
77.8282 -1.36677 0
77.8488 1.08419 0
77.3606 1.30846 0
88.8807 0.532688 0
88.6008 0.158201 0
88.6591 -0.100192 0
88.8257 -0.454388 0
85.2536 4.27518 0
87.2744 7.14224 0
86.7631 -8.41307 0
86.312 -3.35082 0
75.267 -3.42762 0
77.589 -3.5172 0
84.8737 -3.06789 0
85.5257 -1.09975 0
83.8613 0.454889 0
87.2185 3.11295 0
74.8655 4.62962 0
76.7535 2.7349 0
89.5577 -0.0517882 0
89.7274 -0.545167 0
89.6116 0.359415 0
89.5242 0.0974355 0
89.1053 -0.370402 0
88.8755 -1.51641 0
89.4338 2.09045 0
88.4475 0.272644 0
83.2223 1.39906 0
81.4576 0.351187 0
82.5929 -0.337826 0
83.2634 -3.11572 0
91.3704 0.33341 0
91.6522 0.879204 0
91.8095 -0.956515 0
91.6949 -0.0683352 0
82.2459 -3.83628 0
83.3508 -1.83982 0
82.5604 2.71537 0
85.1375 5.9971 0
88.4954 0.321444 0
88.3723 0.060803 0
88.5411 -0.0975657 0
88.487 -0.333579 0
89.0571 -0.182565 0
89.2147 -0.00923972 0
89.1885 0.102034 0
89.0259 0.426599 0
79.9712 0.49836 0
79.7259 1.3057 0
79.9898 -1.14781 0
80.8439 -0.320035 0
81.5259 2.8309 0
79.8913 1.95124 0
79.2733 -2.83765 0
78.4332 -2.86498 0
90.8656 -0.479258 0
90.6105 -0.277488 0
90.4266 0.3743 0
91.3768 0.620112 0
79.8907 3.85053 0
80.3973 2.57428 0
79.3368 -0.82524 0
79.1626 -0.293949 0
78.9989 0.265952 0
79.7321 0.889301 0
76.6002 -0.87497 0
77.5599 -1.34891 0
92.4628 -3.64691 0
89.9783 -2.06885 0
89.4215 3.75642 0
92.8551 3.70817 0
77.9119 -0.865325 0
77.8868 -0.143402 0
77.8282 0.198202 0
77.9847 0.847326 0
78.2509 0.0872633 0
78.2763 0.626278 0
78.4301 -0.343269 0
78.5808 -0.0200429 0
75.473 -0.268906 0
73.1732 0.151685 0
85.261 3.2282 0
89.3812 2.97944 0
88.0609 -2.51898 0
88.66 -4.98211 0
77.6191 2.06835 0
77.1748 1.15444 0
77.8593 -0.0253779 0
77.6771 -0.0507974 0
80.464 6.84404 0
78.3445 4.06164 0
80.0944 -4.30293 0
79.1255 -8.11611 0
77.4006 0.784707 0
77.7854 0.424133 0
90.7568 0.529788 0
91.0961 1.15302 0
90.7994 -1.04844 0
90.7364 -0.206937 0
88.6731 -0.117991 0
88.8752 -0.0804028 0
88.8481 0.0688639 0
88.751 0.393195 0
93.037 0.407891 0
91.8711 1.37257 0
91.9375 -0.542482 0
93.168 -0.666546 0
77.4996 0.107066 0
76.8935 -1.75344 0