# vtk DataFile Version 3.0
Unstructured Grid for Triangles
ASCII
DATASET UNSTRUCTURED_GRID
POINTS 29612 DOUBLE
-2.72397e-05 1.23686e-06 0
-2.95789e-05 9.5838e-07 0
-2.77865e-05 -3.1235e-07 0
0.0002024 5e-05 0
0.000203975 4.9875e-05 0
0.000205 5e-05 0
0.000203975 -4.9875e-05 0
0.0002024 -5e-05 0
0.000205 -5e-05 0
0.00020295 4.975e-05 0
0.00020295 -4.975e-05 0
0.000201925 4.9625e-05 0
0.000201925 -4.9625e-05 0
-5.29747e-05 -4.79887e-05 0
-5.5e-05 -5e-05 0
-5.24e-05 -5e-05 0
-5.05983e-05 -4.84325e-05 0
-4.98e-05 -5e-05 0
-4.72e-05 -5e-05 0
-4.83864e-05 -4.87761e-05 0
-4.46e-05 -5e-05 0
-4.59e-05 -4.84239e-05 0
-4.29453e-05 -4.24878e-05 0
-4.47486e-05 -4.20717e-05 0
-4.41829e-05 -4.36609e-05 0
-5.12578e-05 -4.62101e-05 0
-4.93077e-05 -4.53594e-05 0
-5.0706e-05 -4.39006e-05 0
-4.19243e-05 -4.77545e-05 0
-4.40307e-05 -4.71837e-05 0
-4.3691e-05 -4.86724e-05 0
-5.16129e-05 -4.20948e-05 0
-4.95355e-05 -4.15432e-05 0
-5.11646e-05 -4.0128e-05 0
-3.94697e-05 -4.81197e-05 0
-4.06302e-05 -4.55143e-05 0
-5.37257e-05 -3.88197e-05 0
-5.31099e-05 -4.07297e-05 0
-5.23982e-05 -3.88328e-05 0
-3.70063e-05 -4.72956e-05 0
-3.68e-05 -5e-05 0
-3.5308e-05 -4.85302e-05 0
-5.072e-05 -3.7867e-05 0
-4.85506e-05 -3.83975e-05 0
-4.90949e-05 -3.59622e-05 0
-3.37127e-05 -4.84331e-05 0
-3.16e-05 -5e-05 0
-3.26495e-05 -4.7415e-05 0
-5.5e-05 -3.5e-05 0
-5.31201e-05 -3.70361e-05 0
-5.28367e-05 -3.46817e-05 0
-3.63898e-05 -4.48809e-05 0
-3.83315e-05 -4.60336e-05 0
-3.26269e-06 -4.15503e-05 0
-5.99662e-06 -4.09556e-05 0
-5.46944e-06 -4.29488e-05 0
-5.29747e-05 4.79887e-05 0
-5.5e-05 5e-05 0
-5.5e-05 4.75e-05 0
-5.5e-05 4.5e-05 0
-5.34834e-05 4.29171e-05 0
-5.26943e-05 4.42611e-05 0
-5.34026e-05 4.60176e-05 0
-5.31099e-05 4.07297e-05 0
-5.11672e-05 4.01178e-05 0
-5.16129e-05 4.20948e-05 0
-5.24e-05 5e-05 0
-5.05983e-05 4.84325e-05 0
-5.31201e-05 3.70361e-05 0
-5.072e-05 3.7867e-05 0
-5.23982e-05 3.88328e-05 0
-4.8341e-05 4.69132e-05 0
-4.83679e-05 4.87539e-05 0
-5.28367e-05 3.46817e-05 0
-5.5e-05 3.25e-05 0
-5.25657e-05 3.28474e-05 0
-4.98e-05 5e-05 0
-5.30382e-05 3.125e-05 0
-4.19243e-05 4.77545e-05 0
-4.40015e-05 4.7335e-05 0
-4.25917e-05 4.63678e-05 0
-4.35138e-05 2.62661e-05 0
-4.14982e-05 2.74462e-05 0
-4.35654e-05 2.85217e-05 0
-4.59e-05 4.84239e-05 0
-4.36852e-05 4.87027e-05 0
-4.46e-05 5e-05 0
-5.33308e-05 2.92503e-05 0
-5.5e-05 2.75e-05 0
-5.23377e-05 2.76953e-05 0
-4.25282e-05 4.46352e-05 0
-4.09368e-05 4.35728e-05 0
-4.06302e-05 4.55143e-05 0
0.0002009 4.95e-05 0
0.0001998 5e-05 0
0.000199875 4.9375e-05 0
0.00019885 4.925e-05 0
0.0001972 5e-05 0
0.000197825 4.9125e-05 0
0.0001968 4.9e-05 0
0.000195775 4.8875e-05 0
0.0001946 5e-05 0
0.00019475 4.875e-05 0
0.000193725 4.8625e-05 0
0.000192 5e-05 0
0.0001927 4.85e-05 0
0.000191675 4.8375e-05 0
0.00019065 4.825e-05 0
0.0001894 5e-05 0
0.000189625 4.8125e-05 0
0.0001886 4.8e-05 0
0.0001868 5e-05 0
0.000187575 4.7875e-05 0
0.00018655 4.775e-05 0
0.000185515 4.8575e-05 0
0.0001842 5e-05 0
0.0001845 4.75e-05 0
0.000185525 4.7625e-05 0
0.000182564 4.829e-05 0
0.0001816 5e-05 0
0.00018245 4.725e-05 0
0.000183475 4.7375e-05 0
0.000181425 4.7125e-05 0
0.000180295 4.82657e-05 0
0.000179 5e-05 0
0.000179375 4.6875e-05 0
0.0001804 4.7e-05 0
0.000178168 4.80619e-05 0
0.0001764 5e-05 0
0.000177325 4.6625e-05 0
0.00017835 4.675e-05 0
0.000176428 4.76631e-05 0
0.0001763 4.65e-05 0
0.0001738 5e-05 0
0.0001751 4.84164e-05 0
0.000175275 4.6375e-05 0
0.000174025 4.75632e-05 0
0.0001712 5e-05 0
0.000172615 4.78449e-05 0
0.0001722 4.6e-05 0
0.000173225 4.6125e-05 0
0.00017015 4.575e-05 0
0.000171243 4.7381e-05 0
0.000169554 4.79999e-05 0
0.0001686 5e-05 0
0.000167507 4.79751e-05 0
0.000168498 4.64861e-05 0
0.000166 5e-05 0
0.00016558 4.71459e-05 0
0.000167135 4.62887e-05 0
0.0001681 4.55e-05 0
0.00016605 4.525e-05 0
0.000167075 4.5375e-05 0
0.000164059 4.61599e-05 0
0.00016394 4.79552e-05 0
0.000162881 4.6615e-05 0
0.000162975 4.4875e-05 0
0.000165025 4.5125e-05 0
0.000164 4.5e-05 0
0.000161754 4.58641e-05 0
0.000161722 4.78101e-05 0
0.000159956 4.58294e-05 0
0.000160925 4.4625e-05 0
0.00016195 4.475e-05 0
0.000157667 4.60322e-05 0
0.000158875 4.4375e-05 0
0.000159194 4.80155e-05 0
0.0001599 4.45e-05 0
0.00015785 4.425e-05 0
0.000155808 4.56757e-05 0
0.000155647 4.76701e-05 0
0.000154059 4.66642e-05 0
0.000153756 4.50083e-05 0
0.000154839 4.50446e-05 0
0.000156825 4.4125e-05 0
0.000151954 4.80508e-05 0
0.000154052 4.8477e-05 0
0.000153 5e-05 0
0.000154775 4.3875e-05 0
0.000152142 4.56625e-05 0
0.000152821 4.45753e-05 0
0.00015375 4.375e-05 0
0.0001504 5e-05 0
0.000149644 4.85168e-05 0
0.000151787 4.43178e-05 0
0.000152725 4.3625e-05 0
0.000150675 4.3375e-05 0
0.0001517 4.35e-05 0
0.000148119 4.50887e-05 0
0.000148072 4.75757e-05 0
0.000146584 4.63516e-05 0
0.000150008 4.6396e-05 0
0.000149351 4.4543e-05 0
0.00015061 4.46252e-05 0
0.0001476 4.3e-05 0
0.000148625 4.3125e-05 0
0.000146492 4.82975e-05 0
0.000144888 4.73562e-05 0
0.000146676 4.44259e-05 0
0.000145255 4.53656e-05 0
0.000145652 4.38669e-05 0
0.000141401 4.79821e-05 0
0.0001426 5e-05 0
0.00014 5e-05 0
0.000144374 4.38862e-05 0
0.00014555 4.275e-05 0
0.0001435 4.25e-05 0
0.000144525 4.2625e-05 0
0.000142746 4.38121e-05 0
0.000141288 4.43191e-05 0
0.000141707 4.32778e-05 0
0.00013921 4.38992e-05 0
0.000140355 4.5932e-05 0
0.000138302 4.5922e-05 0
0.000142912 4.58869e-05 0
0.000140592 4.30037e-05 0
0.00014145 4.225e-05 0
0.000136458 4.5869e-05 0
0.000137106 4.4063e-05 0
0.0001394 4.2e-05 0
0.000138259 4.28915e-05 0
0.000137484 4.77094e-05 0
0.000139166 4.78902e-05 0
0.00013586 4.78984e-05 0
0.000133449 4.78649e-05 0
0.000134717 4.61848e-05 0
0.000137256 4.25134e-05 0
0.000135323 4.24541e-05 0
0.000136325 4.1625e-05 0
0.000136122 4.2876e-05 0
0.000131206 4.47284e-05 0
0.000133168 4.56738e-05 0
0.000131773 4.65243e-05 0
0.000134756 4.40343e-05 0
0.000132747 4.36463e-05 0
0.000133483 4.26786e-05 0
0.000131081 4.1867e-05 0
0.000132382 4.22815e-05 0
0.000131507 4.3122e-05 0
0.000131059 4.80123e-05 0
0.00013325 4.125e-05 0
0.00012915 4.075e-05 0
0.00012982 4.18199e-05 0
0.000128915 4.26216e-05 0
0.000126366 4.47574e-05 0
0.000127331 4.30908e-05 0
0.000128781 4.44872e-05 0
0.000125336 4.28376e-05 0
0.000130218 4.31077e-05 0
0.000127894 4.16344e-05 0
0.000124774 4.69608e-05 0
0.000127668 4.64148e-05 0
0.000126591 4.8331e-05 0
0.000126722 4.18415e-05 0
0.000125768 4.11931e-05 0
0.000124326 4.13546e-05 0
0.00012505 4.025e-05 0
0.000122408 4.50118e-05 0
0.000120276 4.47432e-05 0
0.00012139 4.32235e-05 0
0.000124336 4.44132e-05 0
0.000123056 4.27595e-05 0
0.000122977 4.09049e-05 0
0.00012185 4.69217e-05 0
0.000122676 4.85947e-05 0
0.000120525 4.86094e-05 0
0.000121479 4.13153e-05 0
0.000119547 4.24221e-05 0
0.000120249 4.07448e-05 0
0.000119925 3.9625e-05 0
0.000119346 4.06114e-05 0
0.000117479 4.47279e-05 0
0.000114726 4.45259e-05 0
0.00011571 4.27814e-05 0
0.000119443 4.66611e-05 0
0.000117447 4.21596e-05 0
0.000118421 4.0752e-05 0
0.000117409 4.04437e-05 0
0.000116775 4.70073e-05 0
0.0001179 4.855e-05 0
0.000115473 4.84802e-05 0
0.00011685 3.925e-05 0
0.000117875 3.9375e-05 0
0.000115454 4.00551e-05 0
0.0001148 3.9e-05 0
0.000115825 3.9125e-05 0
0.000111704 4.23398e-05 0
0.000113786 4.26731e-05 0
0.000112589 4.43871e-05 0
0.000113234 4.06671e-05 0
0.000114754 4.13371e-05 0
0.0001106 4.42326e-05 0
0.000109703 4.24261e-05 0
0.00011275 3.875e-05 0
0.000113775 3.8875e-05 0
0.000110211 4.80875e-05 0
0.000108244 4.71951e-05 0
0.000109312 4.58413e-05 0
0.000111755 3.99116e-05 0
0.00010944 3.92972e-05 0
0.000110415 4.05876e-05 0
0.000108839 4.07536e-05 0
0.000106472 4.76905e-05 0
0.000107274 4.57868e-05 0
0.000108011 3.92415e-05 0
0.000106885 4.04365e-05 0
0.000106625 3.88708e-05 0
0.000105286 4.19254e-05 0
0.000105055 3.95469e-05 0
0.000104215 4.39764e-05 0
0.000106346 4.40629e-05 0
0.000100945 4.51249e-05 0
0.000102825 4.5614e-05 0
0.000101189 4.68452e-05 0
0.000107625 3.8125e-05 0
0.000105575 3.7875e-05 0
0.0001066 3.8e-05 0
0.000103352 4.76905e-05 0
0.000101803 4.8465e-05 0
0.000103685 3.89398e-05 0
0.00010245 3.8825e-05 0
0.000103525 3.7625e-05 0
0.000101092 3.99779e-05 0
0.000101267 3.82619e-05 0
0.000101382 4.2025e-05 0
0.000103187 4.05286e-05 0
0.000103359 4.24605e-05 0
9.87383e-05 4.5447e-05 0
9.99411e-05 4.35161e-05 0
9.744e-05 4.33145e-05 0
0.00010045 3.725e-05 0
0.000101475 3.7375e-05 0
9.70845e-05 4.65215e-05 0
9.52614e-05 4.67664e-05 0
9.61768e-05 4.49944e-05 0
9.9729e-05 3.87704e-05 0
9.78901e-05 3.9598e-05 0
9.85823e-05 3.81492e-05 0
9.62289e-05 3.93709e-05 0
9.74259e-05 3.81279e-05 0
9.7375e-05 3.6875e-05 0
9.63045e-05 3.76631e-05 0
9.58e-05 5e-05 0
9.32e-05 5e-05 0
9.47542e-05 4.8457e-05 0
9.49675e-05 3.85246e-05 0
9.36214e-05 3.89472e-05 0
9.40006e-05 3.74906e-05 0
9.66411e-05 4.12573e-05 0
9.44241e-05 4.07079e-05 0
9.03569e-05 4.24993e-05 0
9.21701e-05 4.02409e-05 0
9.27439e-05 4.27744e-05 0
8.89795e-05 4.09067e-05 0
9.03071e-05 4.0248e-05 0
9.25447e-05 3.77721e-05 0
9.3275e-05 3.6375e-05 0
9.07708e-05 3.87127e-05 0
9.11303e-05 3.70839e-05 0
9.11933e-05 4.55145e-05 0
9.30678e-05 4.73279e-05 0
9.11886e-05 4.82603e-05 0
8.87724e-05 3.88076e-05 0
8.99595e-05 3.75116e-05 0
9.02e-05 3.6e-05 0
8.89241e-05 3.6954e-05 0
8.36977e-05 4.59472e-05 0
8.36223e-05 4.83578e-05 0
8.20467e-05 4.74142e-05 0
8.71227e-05 4.03557e-05 0
8.61e-05 3.55e-05 0
8.68368e-05 3.65714e-05 0
8.5484e-05 3.6588e-05 0
8.47735e-05 4.02845e-05 0
8.23121e-05 4.21599e-05 0
8.26582e-05 3.98147e-05 0
8.46943e-05 4.2454e-05 0
8.38832e-05 3.78613e-05 0
8.35569e-05 3.63808e-05 0
8.44098e-05 3.6291e-05 0
8.5075e-05 3.5375e-05 0
8.51465e-05 4.77163e-05 0
8.3025e-05 3.5125e-05 0
8.22824e-05 3.68659e-05 0
8.1446e-05 3.57362e-05 0
8.05884e-05 3.71794e-05 0
7.53471e-05 4.77524e-05 0
7.38313e-05 4.73927e-05 0
7.39102e-05 4.61526e-05 0
7.9826e-05 3.58588e-05 0
7.88607e-05 3.76287e-05 0
7.81733e-05 3.57987e-05 0
8.16783e-05 3.84471e-05 0
8.07975e-05 4.04095e-05 0
7.52138e-05 4.04775e-05 0
7.67682e-05 4.17043e-05 0
7.49617e-05 4.21803e-05 0
7.52903e-05 3.84008e-05 0
7.38293e-05 3.93136e-05 0
[...]
CELL_DATA 58684
VECTORS velocity DOUBLE
75.7704 0.330534 0
86.9155 0.000150486 0
86.8889 4.39276e-05 0
86.923 -0.000323741 0
86.8936 -0.000303936 0
86.932 -0.00425832 0
86.9026 0.00448917 0
78.0415 0.0103018 0
78.1315 -0.0284558 0
78.5001 0.0103233 0
78.7741 0.0126159 0
78.9378 -0.323412 0
78.2915 -0.079177 0
79.0718 -0.110635 0
78.231 -0.138385 0
79.4216 -0.12927 0
78.0435 -0.115245 0
80.0328 -0.153984 0
78.3967 -0.239044 0
80.7607 -0.0951079 0
78.0306 -0.129585 0
79.9608 -0.354875 0
87.3409 -2.07768 0
77.9228 0.0178876 0
77.9922 0.0486442 0
77.9174 0.0240529 0
78.1684 0.134081 0
78.131 0.0266319 0
78.1139 0.162894 0
78.4781 0.0343884 0
78.034 0.142708 0
78.3649 0.034575 0
78.021 0.131386 0
79.1882 0.120633 0
78.8426 0.95351 0
78.917 0.0621641 0
78.0287 0.191795 0
79.3412 0.289005 0
86.9381 -0.00180975 0
86.9452 6.99667e-05 0
86.9586 -0.0065499 0
86.9605 -0.00541221 0
86.9704 0.000250965 0
86.9821 -0.0050889 0
86.9854 -0.00870656 0
86.9887 -0.00461607 0
86.9968 0.000122988 0
87.0058 -0.0074162 0
87.0074 -0.0058388 0
87.0148 0.000145927 0
87.0249 -0.0066965 0
87.027 -0.00746769 0
87.0299 -0.00357157 0
87.0366 0.000453676 0
87.0435 -0.00579962 0
87.0454 -0.00396433 0
87.0521 0.000539616 0
87.0602 -0.00522874 0
87.0627 -0.0046083 0
87.0659 -0.00115734 0
87.0727 0.00105906 0
87.0748 -0.00247957 0
87.0834 0.000606964 0
87.0908 0.00155248 0
87.0926 -0.000346078 0
87.0962 0.00252923 0
87.1018 0.00283502 0
87.1066 0.00182074 0
87.1105 0.00397253 0
87.1163 0.00432462 0
87.124 0.00192545 0
87.1256 0.00553594 0
87.1308 0.00656326 0
87.1363 0.00549149 0
87.1471 0.00274353 0
87.1508 0.00671501 0
87.1539 0.0034786 0
87.1708 0.00382512 0
87.1721 0.0097824 0
87.198 0.009203 0
87.1783 0.00976498 0
87.2004 0.00421054 0
87.2125 0.00308217 0
87.2072 0.0110306 0
87.2427 0.00506573 0
87.2381 0.0109987 0
87.2291 0.0127866 0
87.2441 0.0123476 0
87.2852 0.0109743 0
87.3007 0.00996185 0
87.2704 0.0131316 0
87.291 0.00945786 0
87.3274 0.00592692 0
87.3145 0.00403314 0
87.3295 0.00801516 0
87.3855 0.00373767 0
87.3674 -0.00204118 0
87.3673 0.00431954 0
87.4007 -0.0040217 0
87.4262 -0.00798353 0
87.4751 -0.0117396 0
87.4247 0.000902439 0
87.492 -0.00510681 0
87.4759 -0.0105457 0
87.5156 -0.0129357 0
87.499 -0.012356 0
87.5476 -0.00982756 0
87.5249 -0.0165105 0
87.5523 -0.0224026 0
87.6251 -0.019523 0
87.6088 -0.019941 0
87.5744 -0.025043 0
87.6311 -0.0393582 0
87.6615 -0.0196237 0
87.6959 -0.0415514 0
87.6852 -0.0280297 0
87.7806 0.000614765 0
87.7073 -0.0485388 0
87.7351 -0.06173 0
87.8021 -0.0588821 0
87.8561 -0.0526907 0
87.7869 -0.0405664 0
87.8149 -0.0724812 0
87.9058 -0.0572097 0
87.8751 -0.0860814 0
87.8681 -0.0314651 0
87.898 -0.077174 0
87.9626 -0.0310042 0
87.9225 -0.0962945 0
87.9669 -0.118432 0
88.0526 -0.0766982 0
88.021 -0.102284 0
88.0063 -0.0490469 0
88.0805 -0.141473 0
88.0285 -0.0378232 0
88.0419 -0.136885 0
88.1439 -0.164862 0
88.179 -0.11827 0
88.2021 -0.152813 0
88.1406 -0.138656 0
88.1706 -0.152325 0
88.152 -0.0720645 0
88.2298 -0.181745 0
88.2581 -0.200548 0
88.3129 -0.14084 0
88.2199 -0.106583 0
88.2553 -0.174951 0
88.2844 -0.208419 0
88.2588 -0.0436059 0
88.3666 -0.225463 0
88.3781 -0.253668 0
88.4279 -0.163177 0
88.3378 -0.143812 0
88.3942 -0.220282 0
88.4195 -0.254348 0
88.3656 -0.0480215 0
88.4354 -0.292741 0
88.4894 -0.315837 0
88.5091 -0.229897 0
88.5024 -0.263005 0
88.5558 -0.242615 0
88.5301 -0.330852 0
88.5378 -0.0938876 0
88.5377 -0.314907 0
88.6106 -0.320739 0
88.596 -0.105396 0
88.679 -0.377099 0
88.7075 -0.349835 0
88.6886 -0.23001 0
88.7633 -0.174027 0
88.6787 -0.387397 0
88.7185 -0.423125 0
88.7334 -0.0900003 0
88.7838 -0.428297 0
88.8429 -0.436522 0
88.7566 -0.321538 0
88.8394 -0.200756 0
88.8788 -0.266276 0
88.8706 -0.494871 0
88.9348 -0.169855 0
88.9388 -0.462221 0
88.9692 -0.456629 0
88.9954 -0.527203 0
88.9644 -0.00845083 0
89.1155 -0.520269 0
88.9799 -0.412454 0
89.1289 -0.369246 0
89.2165 -0.429387 0
89.1633 -0.572288 0
89.2336 -0.575631 0
89.109 -0.133797 0
89.2761 -0.557958 0
89.3092 -0.639926 0
89.3325 -0.613841 0
89.4926 -0.143705 0
89.3197 -0.491993 0
89.5216 -0.693456 0
89.6115 -0.528429 0
89.5028 -0.447744 0
89.6094 -0.727728 0
89.582 -0.721506 0
89.4815 -0.128839 0
89.7217 -0.788361 0
89.7748 -0.738294 0
90.0767 -0.139575 0
89.9162 -0.798817 0
89.7126 -0.57414 0
90.0766 -0.506636 0
90.1572 -0.64625 0
89.9979 -0.72322 0
90.0218 -0.854359 0
90.1444 -0.305746 0
90.2696 -0.806843 0
90.2064 -0.932992 0
90.4768 -0.9256 0
90.4676 -0.0114232 0
90.423 -0.771955 0
90.4994 -0.955275 0
90.3112 -0.243474 0
90.5888 -0.999069 0
90.7385 -0.572593 0
90.651 -1.04225 0
90.9867 -0.311457 0
90.9 -0.878258 0
90.8507 -1.03598 0
90.8064 -0.165689 0
91.0438 -1.05535 0
91.3038 -1.00998 0
91.0959 -0.879987 0
91.1718 -0.523586 0
91.3481 -1.15448 0
91.3909 -0.450276 0
91.6295 -0.0760717 0
91.2812 -0.908273 0
91.5094 -1.12636 0
91.6219 -1.20957 0
91.6967 -0.37552 0
91.8196 -1.02185 0
92.0215 -1.10903 0
91.8193 -0.12893 0
92.2095 -1.06242 0
92.1032 -1.19948 0
91.9291 -0.896193 0
92.0329 -0.431603 0
92.1664 -0.499528 0
92.2998 -1.18642 0
92.2739 -0.00585047 0
92.4299 -1.25737 0
92.5911 -1.18181 0
92.5399 -1.24784 0
92.5481 -0.278698 0
92.6676 -1.01073 0
92.9482 -1.01235 0
92.5352 -0.00498686 0
93.0504 -1.19637 0
93.2376 -1.01357 0
92.8577 -0.746592 0
92.6888 -0.319537 0
93.2357 -1.14083 0
92.8582 -0.392498 0
92.6864 -0.0238432 0
93.1581 -0.780672 0
93.5047 -1.03424 0
93.6673 -0.965519 0
92.8631 -0.102448 0
93.6114 -0.678814 0
93.7519 -0.871311 0
92.7191 0.0116013 0
93.8846 -0.855219 0
94.0601 -0.726921 0
93.6876 -0.299484 0
92.4584 0.00566814 0
94.2003 -0.509545 0
93.3569 0.127468 0
93.5744 0.220402 0
94.0734 -0.363239 0
93.8572 -0.110624 0
94.4944 -0.138856 0
92.5706 0.315762 0
94.4845 -0.237034 0
94.0407 0.310662 0
94.6557 0.369361 0
92.4917 0.0886039 0
94.6029 1.03742 0
94.3814 1.2609 0
91.1048 0.182774 0
94.821 0.739358 0
94.7234 1.19811 0
92.4453 1.34463 0
92.2089 0.633287 0
93.7031 0.978577 0
94.6282 1.70955 0
91.3523 0.302929 0
94.1621 2.5654 0
94.8058 1.92528 0
94.8217 2.14427 0
90.6044 1.32026 0
93.2094 2.6983 0
94.2374 2.93624 0
90.5785 0.216312 0
94.0587 3.42558 0
93.713 3.3247 0
92.8138 4.93722 0
88.3536 0.380139 0
93.9377 4.61639 0
91.941 3.31148 0
90.0741 1.46929 0
89.7209 2.8321 0
93.7193 5.124 0
92.6356 5.60228 0
88.7925 0.578737 0
92.7197 6.41939 0
86.9079 0.00173447 0
86.914 -0.000133313 0
86.9245 0.00491022 0
86.9258 0.00440198 0
86.9339 -0.000296133 0
86.944 0.00417502 0
86.9464 0.00672746 0
86.9495 0.0034217 0
86.9562 -0.000151621 0
86.9637 0.0059661 0
86.9651 0.00436784 0
86.9713 -0.000246145 0
86.9798 0.00538208 0
86.9818 0.00608993 0
86.9844 0.00286925 0
86.9904 -0.00053212 0
86.9968 0.00493096 0
86.9987 0.00328812 0
87.005 -0.000620854 0
87.0124 0.00454745 0
87.0149 0.00408018 0
87.0237 0.00376464 0
87.0181 0.000899956 0
87.0303 0.000980015 0
87.0413 0.00083662 0
87.0353 -0.00026542 0
87.0483 -0.00149907 0
87.0542 -0.00207425 0
87.0599 -0.000487751 0
87.0505 0.000349524 0
87.0698 -0.00315226 0
87.0759 -0.0016585 0
87.0684 1.4184e-05 0
87.0922 -0.00250333 0
87.0968 -0.00434571 0
87.102 -0.00344976 0
87.0881 -0.000864856 0
87.1079 -0.00427751 0
87.1256 -0.00564476 0
87.1117 -0.00189726 0
87.1456 -0.0056306 0
87.149 -0.00498853 0
87.16 -0.00652094 0
87.1396 -0.00236969 0
87.1696 -0.00752921 0
87.1941 -0.00870794 0
87.2085 -0.00274061 0
87.1912 -0.00506806 0
87.2198 -0.00577969 0
87.2278 -0.00674497 0
87.2688 -0.00660672 0
87.2536 -0.00798666 0
87.2706 -0.00608003 0
87.2939 -0.00176293 0
87.3171 -0.00267092 0
87.3179 -0.00533944 0
87.3326 0.00186879 0
87.3794 0.00712326 0
87.3385 0.00457775 0
87.3754 0.00836861 0
87.3837 0.00643272 0
87.418 0.00522873 0
87.4354 0.00457704 0
87.4512 0.0137497 0
87.3482 0.00504717 0
87.4769 0.0151138 0
87.5316 0.0251052 0
87.5074 0.0203567 0
87.4878 0.0106902 0
87.559 0.0298578 0
87.5734 0.0243086 0
87.6418 0.0195369 0
87.5543 0.0269426 0
87.6271 0.0346313 0
87.6579 0.0459695 0
87.5824 0.00984393 0
87.6504 0.0330804 0
87.718 0.0608562 0
87.6695 0.0286232 0
87.7402 0.0517909 0
87.7974 0.0760092 0
87.7696 0.0556878 0
87.8205 0.0231661 0
87.8211 0.0701146 0
87.8447 0.0818055 0
87.8551 0.0237889 0
87.8876 0.0973412 0
87.8485 0.0718144 0
87.9307 0.0837742 0
87.8788 0.0544092 0
87.9447 0.115362 0
88.0358 0.150519 0
88.0079 0.0370833 0
87.9898 0.102396 0
88.0743 0.162682 0
88.0541 0.120639 0
87.9867 0.047273 0
88.0973 0.156458 0
88.1305 0.171306 0
88.1049 0.0429599 0
88.1539 0.0772811 0
88.1761 0.155897 0
88.1945 0.204175 0
88.1246 0.108721 0
88.2324 0.199252 0
88.2591 0.219275 0
88.2805 0.078513 0
88.2452 0.135093 0
88.3157 0.248731 0
88.3145 0.214441 0
88.2152 0.0692174 0
88.3392 0.242327 0
88.3864 0.262841 0
88.3723 0.107156 0
88.3603 0.224437 0
88.452 0.308351 0
88.4395 0.244441 0
88.3198 0.0787719 0
88.4744 0.294042 0
88.5418 0.3539 0
88.4394 0.103674 0
88.5253 0.292817 0
88.5118 0.139973 0
88.5696 0.302314 0
88.4929 0.175146 0
88.5988 0.375644 0
88.6491 0.382072 0
88.5706 0.106156 0
88.6427 0.372232 0
88.7179 0.427432 0
88.6776 0.115921 0
88.6175 0.316134 0
88.7062 0.368517 0
88.7599 0.43183 0
88.6674 0.0678572 0
88.771 0.397145 0
88.8786 0.502424 0
88.8557 0.428193 0
88.8046 0.132914 0
88.9404 0.439314 0
88.7501 0.173776 0
88.7816 0.378126 0
88.927 0.485972 0
89.0447 0.541169 0
89.0517 0.556333 0
88.7778 0.0134023 0
89.1676 0.621623 0
89.1776 0.608133 0
89.2154 0.535883 0
89.152 0.271309 0
89.2802 0.290623 0
89.2305 0.599079 0
88.9908 0.168704 0
89.3716 0.664151 0
89.3699 0.650644 0
89.3883 0.588843 0
89.2751 0.177913 0
89.4786 0.646628 0
89.6432 0.7882 0
89.4833 0.310041 0
89.4118 0.330766 0
89.5999 0.647919 0
89.8068 0.808567 0
89.3219 0.20768 0
89.8626 0.850655 0
89.9193 0.825526 0
89.7094 0.168636 0
90.1152 0.923775 0
90.1631 0.885634 0
90.2793 0.756692 0
89.991 0.344736 0
89.9427 0.393533 0
90.1471 0.854588 0
89.8162 0.26022 0
90.3785 0.996822 0
90.4579 0.934245 0
90.4698 0.862216 0
90.1298 0.134817 0
90.7098 0.993883 0
90.7379 1.01287 0
90.5335 0.579635 0
90.8879 0.792464 0
90.5671 0.469807 0
90.8205 0.968157 0
90.4104 0.301015 0
91.0439 1.10522 0
91.0839 1.06469 0
90.4773 0.241864 0
91.1883 0.977464 0
91.4409 1.10215 0
91.3182 1.08962 0
91.1966 0.257438 0
91.7203 1.13882 0
91.7819 1.21109 0
91.1109 0.762246 0
91.6571 0.901545 0
91.2043 0.464833 0
92.0342 1.25783 0
91.4761 0.140612 0
92.1206 1.21304 0
92.1193 1.14193 0
91.2237 0.114106 0
92.0406 1.0362 0
92.5185 1.20058 0
92.6273 1.20036 0
92.0053 0.313212 0
92.7168 1.16462 0
92.7739 1.23657 0
91.9517 0.785731 0
92.7894 0.819062 0
92.2127 0.300547 0
92.9641 1.22422 0
92.2607 0.109503 0
93.1271 1.13815 0
93.2216 1.1145 0
92.0424 0.0815261 0
93.0311 0.930953 0
93.5237 1.03235 0
93.6849 0.964712 0
92.572 0.19777 0
93.5202 0.909243 0
93.8206 0.912463 0
93.1307 0.795358 0
93.6066 0.485881 0
92.6781 0.130049 0
93.5897 0.825877 0
92.7052 0.0499109 0
94.0547 0.805396 0
94.1347 0.665314 0
92.5902 0.0461068 0
93.8425 0.363943 0
94.2698 0.393189 0
94.4413 0.265761 0
92.6992 -0.0730292 0
94.5199 0.072832 0
94.5596 -0.0546052 0
92.8388 -0.212889 0
94.5719 -0.0843747 0
93.7994 -0.52264 0
93.1229 -0.034291 0
92.9348 0.0364822 0
94.6932 -0.35706 0
94.4586 -0.734673 0
94.8718 -0.895521 0
92.5924 -0.00238929 0
94.1794 -1.16524 0
94.8763 -1.58996 0
92.5359 -0.102647 0
94.017 -1.13632 0
94.8635 -2.10505 0
93.4807 -1.59197 0
92.4984 -0.58382 0
94.6836 -2.44305 0
94.5657 -2.72909 0
93.4444 -0.979591 0
92.9183 -2.91928 0
90.9295 -2.43192 0
94.2086 -2.7778 0
91.3109 -0.365418 0
94.2393 -3.69462 0
91.8182 7.04977 0
92.5343 6.25522 0
87.1258 1.84905 0
91.7198 7.02214 0
89.4902 6.45228 0
91.0735 7.66898 0
87.7015 0.721021 0
90.106 7.9009 0
88.9388 7.804 0
86.4503 0.926282 0
89.0169 8.32379 0
94.1646 -4.11493 0
91.5478 -0.227275 0
93.9213 -4.45731 0
92.7039 -4.87206 0
92.1359 -4.1754 0
90.6696 -0.249807 0
92.9727 -5.45393 0
87.7122 7.62453 0
92.3739 -6.75263 0
90.4397 -1.30379 0
92.0567 -6.52994 0
91.2122 -7.51627 0
85.2922 2.28436 0
90.7861 -7.39437 0
91.8846 -4.0047 0
91.2714 -6.66678 0
89.3835 -4.91924 0
88.3864 -0.787583 0
90.3273 -6.79417 0
89.553 -7.23809 0
87.0887 8.06134 0
89.6243 -7.23466 0
89.1962 -0.424379 0
88.6004 -7.62674 0
88.0928 -8.34341 0
87.7234 -0.532955 0
86.9998 -8.51637 0
87.4867 -6.19353 0
85.5569 -0.621128 0
85.9845 -8.68329 0
86.0073 -4.75068 0
87.7125 -3.69847 0
86.5268 -7.39645 0
85.4029 -7.77022 0
88.0403 4.25017 0
84.3417 0.502904 0
87.4232 2.83124 0
86.0742 -0.0693633 0
84.8584 -8.45102 0
86.7143 7.64108 0
84.056 0.364718 0
86.1181 6.48076 0
83.9785 -8.32094 0
85.6306 -1.65717 0
83.2157 -6.01047 0
86.1347 8.7354 0
82.851 1.94284 0
86.0331 8.6649 0
83.7516 7.20922 0
83.1514 0.397624 0
84.4215 7.5886 0
83.8454 -6.26237 0
85.1354 -0.46238 0
83.1059 -8.45066 0
83.12 -8.21613 0
84.8006 8.16076 0
82.8209 7.78072 0
82.3593 0.0253454 0
83.9182 8.03509 0
81.8913 4.96159 0
82.4098 2.20542 0
82.154 -8.40354 0
82.9181 -1.05369 0
82.4941 -8.27724 0
81.6784 8.24813 0
81.5009 -7.65987 0
81.9177 -1.0403 0
81.5929 -3.28998 0
80.1924 -7.36813 0
83.2271 -3.97541 0
80.0397 -7.11753 0
81.2647 -0.271106 0
79.0859 -6.80793 0
81.0227 2.78338 0
81.6237 0.44079 0
81.2135 6.88884 0
80.7675 0.101105 0
81.0276 8.1241 0
80.719 7.61992 0
80.3228 0.170283 0
79.8983 6.6487 0
79.9391 0.121272 0
80.4749 -6.33181 0
81.2776 -0.557889 0
81.7345 5.93345 0
78.4664 0.58917 0
79.4305 6.25078 0
78.9535 -6.77491 0
81.392 -0.230709 0
77.258 -5.78939 0
78.2307 -0.365228 0
78.0742 -5.68309 0
80.1046 2.51196 0
77.9022 0.118502 0
81.1706 -5.12464 0
77.9198 -0.112578 0
77.3453 -5.35842 0
78.7853 5.63772 0
78.665 -4.23002 0
78.0634 -0.244276 0
77.5911 -4.58913 0
79.5228 3.10618 0
77.2783 1.99727 0
78.2209 4.86697 0
78.4291 -0.838329 0
77.4756 -5.09424 0
78.1149 0.335497 0
78.2375 6.59515 0
79.0827 -2.35376 0
77.899 -0.0928941 0
77.0918 -4.58615 0
77.9364 5.88792 0
78.3389 0.564802 0
77.7622 4.59841 0
77.5135 4.54591 0
78.1075 0.315075 0
76.6653 4.04016 0
76.2516 -4.14139 0
78.0671 -0.276954 0
75.9476 -4.12569 0
77.9759 -1.99103 0
77.9974 -0.210228 0
75.2678 -2.81662 0
76.7821 5.03774 0
78.3232 0.51024 0
77.8231 3.22795 0
75.8419 -2.56034 0
78.1242 -0.254708 0
75.2139 -2.33237 0
75.625 3.7163 0
78.1398 0.235725 0
75.9972 3.49266 0
76.2564 2.85829 0
77.9051 0.0424086 0
75.461 3.03974 0
76.423 -1.51448 0
78.2621 -0.448246 0
75.773 -1.32773 0
74.6719 -0.84882 0
78.1513 -0.898326 0
74.713 -0.71295 0
77.9712 0.93785 0
78.0289 0.0538489 0
77.4079 2.43666 0
75.2271 2.45059 0
78.1402 0.0496744 0
74.7999 1.55205 0
78.1905 -0.208515 0
77.9375 -0.109117 0
74.708 -0.235318 0
75.1986 -0.0936515 0
78.0255 -0.0611457 0
77.1753 0.31563 0
75.3565 0.532519 0
77.9782 -0.0634243 0
78.9663 -5.59208 0
78.3363 -0.343172 0
77.9519 0.127144 0
79.9321 6.82155 0
80.9289 -7.66925 0
83.9589 -0.910935 0
82.1991 0.951389 0
83.6841 8.55237 0
78.0405 0.242549 0
76.2276 4.82383 0
75.6175 -2.81835 0
77.952 -0.176551 0
78.347 -0.432209 0
79.1748 -3.63061 0
78.5835 0.604978 0
78.033 0.212136 0
78.0509 -0.00288556 0
75.2735 2.04362 0
80.7434 0.45891 0
79.5632 1.50259 0
79.979 -1.3159 0
81.9718 -0.666733 0
87.8069 -1.20428 0
87.4789 -8.34991 0
89.3655 7.91742 0
87.3439 0.444636 0
78.8575 1.57366 0
81.5899 7.93905 0
80.4476 -7.0137 0
80.8301 -2.26601 0
78.0749 -1.4195 0
76.1179 -0.231021 0
77.9589 5.78494 0
79.2369 1.83506 0
79.0356 -1.69588 0
76.4756 -4.59798 0
93.6858 -5.09746 0
90.3625 -0.614569 0
89.954 0.731178 0
94.0878 4.1893 0
78.5828 -0.617899 0
78.0438 -0.056032 0
78.0974 0.124827 0
80.2232 0.738487 0
85.0642 0.699908 0
84.7259 3.98307 0
83.0697 -1.8997 0
86.288 -1.68394 0
83.6195 4.77139 0
86.6432 8.20383 0
85.474 -8.60512 0
84.4992 -1.84544 0
88.5596 1.52972 0
89.6826 4.83766 0
88.2359 -2.66801 0
89.3282 -0.0383315 0
92.4791 -0.211976 0
94.8327 -1.1307 0
94.6856 0.379537 0
91.6641 0.0239226 0
92.6755 0.00409928 0
94.1737 0.645051 0
93.9589 -0.631792 0
92.8208 0.0103662 0
80.3903 -1.42619 0
79.4477 -0.514181 0
79.4416 1.12758 0
80.5803 0.947988 0
79.1697 1.08441 0
78.0615 0.239091 0
77.9159 -0.0948293 0
78.9995 -0.960277 0
91.3493 0.874769 0
92.5716 1.71959 0
91.674 -1.04313 0
91.8804 -0.151831 0
77.2789 -0.952611 0
78.0511 -0.143732 0
78.1805 -0.362879 0
78.1373 -0.342568 0
77.992 0.189048 0
78.5951 0.762357 0
93.3011 1.05677 0
92.4194 0.172408 0
92.6186 -0.00522634 0
93.0084 -1.15154 0
83.562 -0.0263894 0
82.7451 -2.71301 0
83.8914 1.72976 0
82.4476 0.42784 0
79.4512 4.00306 0
79.202 7.26413 0
78.8829 -6.21016 0
79.8 -3.20743 0
80.1782 -2.09848 0
78.8054 -2.18706 0
79.6277 4.55901 0
79.5279 2.19238 0
92.8271 0.0151822 0
92.5474 0.115992 0
92.7367 -0.0325125 0
93.6891 0.179151 0
81.6472 -5.30073 0
82.7752 -5.13393 0
82.298 4.5098 0
82.9619 8.47559 0
80.8174 -3.88181 0
82.0231 -2.21777 0
81.8711 2.99946 0
80.7177 1.52278 0
92.4333 1.28217 0
91.7868 0.161021 0
92.1112 -0.00975597 0
91.9098 -1.17746 0
78.2879 0.965356 0
77.9476 0.0183892 0
92.6863 -0.0736638 0
93.3327 -0.416583 0
93.0454 0.290486 0
92.4963 0.045074 0
80.0496 -0.923932 0
79.4017 -1.22457 0
80.5738 1.72 0
79.0544 0.575618 0
78.0348 -0.144717 0
78.8521 -0.541491 0
78.3963 0.236017 0
77.9981 0.134506 0
75.6705 1.70016 0
78.1601 1.50736 0
88.9894 -3.01927 0
92.3372 -6.09964 0
93.2829 5.53017 0
88.6954 2.16167 0
78.1924 -2.31915 0
76.327 -2.8833 0
90.8348 0.191742 0
91.1755 1.05577 0
89.8315 0.104574 0
90.6623 1.04241 0
91.1891 -1.03828 0
91.0216 -0.16963 0
90.3154 -0.903866 0
90.263 -0.0146072 0
92.3061 -0.243397 0
92.3994 -0.688593 0
92.2385 0.439215 0
91.9596 0.00615115 0
78.0097 0.162464 0
78.2539 0.451022 0
77.6409 0.436587 0
75.7375 0.839447 0
78.1387 -0.225664 0
77.9709 -0.1564 0
78.1697 0.237576 0
78.2433 -0.714702 0
94.6903 -2.48821 0
91.6044 -1.61166 0
92.5736 2.04072 0
94.8232 1.4098 0
78.5504 -0.0388555 0
78.8028 -0.247685 0
78.0876 0.0641486 0
79.1252 0.210351 0
91.5153 -0.239735 0
91.512 -0.625954 0
91.566 0.41786 0
91.0328 0.138328 0
89.566 0.236424 0
89.7789 0.713261 0
89.7922 -0.828444 0
89.7 -0.20792 0
79.5009 -0.788485 0
80.9285 -2.11058 0
80.1825 1.57417 0
79.5553 1.18843 0
80.7598 2.82475 0
78.7578 1.79755 0
79.2918 -1.85688 0
80.3078 -2.7627 0
93.1517 -0.444019 0
94.0889 0.377404 0
94.2546 -0.377357 0
93.5563 0.46693 0
78.5628 -1.02814 0
78.756 -1.23109 0
78.6271 0.926491 0
78.3957 1.25587 0
89.5351 0.75271 0
89.1989 0.23863 0
89.2792 -0.149036 0
89.4531 -0.648494 0
87.1359 4.14715 0
89.1814 6.97466 0
88.6787 -8.25475 0
88.1597 -3.2234 0
76.8224 -3.39856 0
79.1002 -3.46678 0
86.7453 -2.96549 0
87.3658 -1.04975 0
85.7303 0.441519 0
89.022 2.96228 0
76.4896 4.58436 0
78.1297 2.71512 0
90.612 -0.0638548 0
90.8136 -0.673164 0
90.6723 0.452379 0
90.5607 0.126611 0
90.7904 -0.342301 0
90.5835 -1.4098 0
91.1273 1.93911 0
90.154 0.255493 0
85.0833 1.34627 0
83.2556 0.332846 0
84.4403 -0.326113 0
85.1442 -3.00768 0
93.001 0.369841 0
93.2853 0.921389 0
93.4454 -0.999123 0
93.3349 -0.123258 0
84.1118 -3.70839 0
85.2191 -1.76906 0
84.4252 2.61543 0
87.053 5.8688 0
89.0331 0.486474 0
88.9141 0.0932277 0
89.1157 -0.147324 0
89.0156 -0.504037 0
89.8457 -0.253685 0
90.0933 -0.00983748 0
90.0534 0.134232 0
89.7687 0.593642 0
81.5379 0.4885 0
81.2522 1.27585 0
81.5892 -1.10377 0
82.5635 -0.311844 0
83.3413 2.71242 0
81.4877 1.89057 0
80.8629 -2.75839 0
79.8416 -2.84492 0
92.5118 -0.420422 0
92.2608 -0.245456 0
92.0793 0.332307 0
93.0095 0.535028 0
81.6181 3.71907 0
82.107 2.47967 0
80.7349 -0.819847 0
80.4763 -0.298611 0
80.2134 0.259315 0
81.2698 0.855492 0
77.7837 -0.873296 0
78.5348 -1.2499 0
94.0944 -3.38006 0
91.6614 -1.91341 0
91.1778 3.54358 0
94.4846 3.43162 0
78.521 -0.663043 0
77.976 -0.162487 0
77.9705 0.176382 0
78.5925 0.674517 0
78.9906 0.0599868 0
79.088 0.521012 0
79.3147 -0.270401 0
79.5533 -0.00617787 0
76.8503 -0.274151 0
74.7204 0.15231 0
87.1212 3.11318 0
91.1032 2.7918 0
89.823 -2.3751 0
90.4581 -4.76732 0
78.8117 2.03817 0
78.2469 1.14133 0
77.8901 -0.0297824 0
78.1523 -0.0536434 0
82.3349 6.7381 0
79.9489 3.9961 0
81.8694 -4.1627 0
80.9838 -8.04016 0
78.2162 0.690683 0
78.143 0.341054 0
92.2737 0.581092 0
92.664 1.24089 0
92.2984 -1.15337 0
92.2747 -0.225614 0
89.2964 -0.178502 0
89.5783 -0.116082 0
89.553 0.0996 0
89.3708 0.569129 0
94.5934 0.303935 0
93.4759 1.22765 0
93.5479 -0.445353 0