# vtk DataFile Version 3.0
Unstructured Grid for Triangles
ASCII
DATASET UNSTRUCTURED_GRID
POINTS 29612 DOUBLE
-2.72397e-05 1.23686e-06 0
-2.95789e-05 9.5838e-07 0
-2.77865e-05 -3.1235e-07 0
0.0002024 5e-05 0
0.000203975 4.9875e-05 0
0.000205 5e-05 0
0.000203975 -4.9875e-05 0
0.0002024 -5e-05 0
0.000205 -5e-05 0
0.00020295 4.975e-05 0
0.00020295 -4.975e-05 0
0.000201925 4.9625e-05 0
0.000201925 -4.9625e-05 0
-5.29747e-05 -4.79887e-05 0
-5.5e-05 -5e-05 0
-5.24e-05 -5e-05 0
-5.05983e-05 -4.84325e-05 0
-4.98e-05 -5e-05 0
-4.72e-05 -5e-05 0
-4.83864e-05 -4.87761e-05 0
-4.46e-05 -5e-05 0
-4.59e-05 -4.84239e-05 0
-4.29453e-05 -4.24878e-05 0
-4.47486e-05 -4.20717e-05 0
-4.41829e-05 -4.36609e-05 0
-5.12578e-05 -4.62101e-05 0
-4.93077e-05 -4.53594e-05 0
-5.0706e-05 -4.39006e-05 0
-4.19243e-05 -4.77545e-05 0
-4.40307e-05 -4.71837e-05 0
-4.3691e-05 -4.86724e-05 0
-5.16129e-05 -4.20948e-05 0
-4.95355e-05 -4.15432e-05 0
-5.11646e-05 -4.0128e-05 0
-3.94697e-05 -4.81197e-05 0
-4.06302e-05 -4.55143e-05 0
-5.37257e-05 -3.88197e-05 0
-5.31099e-05 -4.07297e-05 0
-5.23982e-05 -3.88328e-05 0
-3.70063e-05 -4.72956e-05 0
-3.68e-05 -5e-05 0
-3.5308e-05 -4.85302e-05 0
-5.072e-05 -3.7867e-05 0
-4.85506e-05 -3.83975e-05 0
-4.90949e-05 -3.59622e-05 0
-3.37127e-05 -4.84331e-05 0
-3.16e-05 -5e-05 0
-3.26495e-05 -4.7415e-05 0
-5.5e-05 -3.5e-05 0
-5.31201e-05 -3.70361e-05 0
-5.28367e-05 -3.46817e-05 0
-3.63898e-05 -4.48809e-05 0
-3.83315e-05 -4.60336e-05 0
-3.26269e-06 -4.15503e-05 0
-5.99662e-06 -4.09556e-05 0
-5.46944e-06 -4.29488e-05 0
-5.29747e-05 4.79887e-05 0
-5.5e-05 5e-05 0
-5.5e-05 4.75e-05 0
-5.5e-05 4.5e-05 0
-5.34834e-05 4.29171e-05 0
-5.26943e-05 4.42611e-05 0
-5.34026e-05 4.60176e-05 0
-5.31099e-05 4.07297e-05 0
-5.11672e-05 4.01178e-05 0
-5.16129e-05 4.20948e-05 0
-5.24e-05 5e-05 0
-5.05983e-05 4.84325e-05 0
-5.31201e-05 3.70361e-05 0
-5.072e-05 3.7867e-05 0
-5.23982e-05 3.88328e-05 0
-4.8341e-05 4.69132e-05 0
-4.83679e-05 4.87539e-05 0
-5.28367e-05 3.46817e-05 0
-5.5e-05 3.25e-05 0
-5.25657e-05 3.28474e-05 0
-4.98e-05 5e-05 0
-5.30382e-05 3.125e-05 0
-4.19243e-05 4.77545e-05 0
-4.40015e-05 4.7335e-05 0
-4.25917e-05 4.63678e-05 0
-4.35138e-05 2.62661e-05 0
-4.14982e-05 2.74462e-05 0
-4.35654e-05 2.85217e-05 0
-4.59e-05 4.84239e-05 0
-4.36852e-05 4.87027e-05 0
-4.46e-05 5e-05 0
-5.33308e-05 2.92503e-05 0
-5.5e-05 2.75e-05 0
-5.23377e-05 2.76953e-05 0
-4.25282e-05 4.46352e-05 0
-4.09368e-05 4.35728e-05 0
-4.06302e-05 4.55143e-05 0
0.0002009 4.95e-05 0
0.0001998 5e-05 0
0.000199875 4.9375e-05 0
0.00019885 4.925e-05 0
0.0001972 5e-05 0
0.000197825 4.9125e-05 0
0.0001968 4.9e-05 0
0.000195775 4.8875e-05 0
0.0001946 5e-05 0
0.00019475 4.875e-05 0
0.000193725 4.8625e-05 0
0.000192 5e-05 0
0.0001927 4.85e-05 0
0.000191675 4.8375e-05 0
0.00019065 4.825e-05 0
0.0001894 5e-05 0
0.000189625 4.8125e-05 0
0.0001886 4.8e-05 0
0.0001868 5e-05 0
0.000187575 4.7875e-05 0
0.00018655 4.775e-05 0
0.000185515 4.8575e-05 0
0.0001842 5e-05 0
0.0001845 4.75e-05 0
0.000185525 4.7625e-05 0
0.000182564 4.829e-05 0
0.0001816 5e-05 0
0.00018245 4.725e-05 0
0.000183475 4.7375e-05 0
0.000181425 4.7125e-05 0
0.000180295 4.82657e-05 0
0.000179 5e-05 0
0.000179375 4.6875e-05 0
0.0001804 4.7e-05 0
0.000178168 4.80619e-05 0
0.0001764 5e-05 0
0.000177325 4.6625e-05 0
0.00017835 4.675e-05 0
0.000176428 4.76631e-05 0
0.0001763 4.65e-05 0
0.0001738 5e-05 0
0.0001751 4.84164e-05 0
0.000175275 4.6375e-05 0
0.000174025 4.75632e-05 0
0.0001712 5e-05 0
0.000172615 4.78449e-05 0
0.0001722 4.6e-05 0
0.000173225 4.6125e-05 0
0.00017015 4.575e-05 0
0.000171243 4.7381e-05 0
0.000169554 4.79999e-05 0
0.0001686 5e-05 0
0.000167507 4.79751e-05 0
0.000168498 4.64861e-05 0
0.000166 5e-05 0
0.00016558 4.71459e-05 0
0.000167135 4.62887e-05 0
0.0001681 4.55e-05 0
0.00016605 4.525e-05 0
0.000167075 4.5375e-05 0
0.000164059 4.61599e-05 0
0.00016394 4.79552e-05 0
0.000162881 4.6615e-05 0
0.000162975 4.4875e-05 0
0.000165025 4.5125e-05 0
0.000164 4.5e-05 0
0.000161754 4.58641e-05 0
0.000161722 4.78101e-05 0
0.000159956 4.58294e-05 0
0.000160925 4.4625e-05 0
0.00016195 4.475e-05 0
0.000157667 4.60322e-05 0
0.000158875 4.4375e-05 0
0.000159194 4.80155e-05 0
0.0001599 4.45e-05 0
0.00015785 4.425e-05 0
0.000155808 4.56757e-05 0
0.000155647 4.76701e-05 0
0.000154059 4.66642e-05 0
0.000153756 4.50083e-05 0
0.000154839 4.50446e-05 0
0.000156825 4.4125e-05 0
0.000151954 4.80508e-05 0
0.000154052 4.8477e-05 0
0.000153 5e-05 0
0.000154775 4.3875e-05 0
0.000152142 4.56625e-05 0
0.000152821 4.45753e-05 0
0.00015375 4.375e-05 0
0.0001504 5e-05 0
0.000149644 4.85168e-05 0
0.000151787 4.43178e-05 0
0.000152725 4.3625e-05 0
0.000150675 4.3375e-05 0
0.0001517 4.35e-05 0
0.000148119 4.50887e-05 0
0.000148072 4.75757e-05 0
0.000146584 4.63516e-05 0
0.000150008 4.6396e-05 0
0.000149351 4.4543e-05 0
0.00015061 4.46252e-05 0
0.0001476 4.3e-05 0
0.000148625 4.3125e-05 0
0.000146492 4.82975e-05 0
0.000144888 4.73562e-05 0
0.000146676 4.44259e-05 0
0.000145255 4.53656e-05 0
0.000145652 4.38669e-05 0
0.000141401 4.79821e-05 0
0.0001426 5e-05 0
0.00014 5e-05 0
0.000144374 4.38862e-05 0
0.00014555 4.275e-05 0
0.0001435 4.25e-05 0
0.000144525 4.2625e-05 0
0.000142746 4.38121e-05 0
0.000141288 4.43191e-05 0
0.000141707 4.32778e-05 0
0.00013921 4.38992e-05 0
0.000140355 4.5932e-05 0
0.000138302 4.5922e-05 0
0.000142912 4.58869e-05 0
0.000140592 4.30037e-05 0
0.00014145 4.225e-05 0
0.000136458 4.5869e-05 0
0.000137106 4.4063e-05 0
0.0001394 4.2e-05 0
0.000138259 4.28915e-05 0
0.000137484 4.77094e-05 0
0.000139166 4.78902e-05 0
0.00013586 4.78984e-05 0
0.000133449 4.78649e-05 0
0.000134717 4.61848e-05 0
0.000137256 4.25134e-05 0
0.000135323 4.24541e-05 0
0.000136325 4.1625e-05 0
0.000136122 4.2876e-05 0
0.000131206 4.47284e-05 0
0.000133168 4.56738e-05 0
0.000131773 4.65243e-05 0
0.000134756 4.40343e-05 0
0.000132747 4.36463e-05 0
0.000133483 4.26786e-05 0
0.000131081 4.1867e-05 0
0.000132382 4.22815e-05 0
0.000131507 4.3122e-05 0
0.000131059 4.80123e-05 0
0.00013325 4.125e-05 0
0.00012915 4.075e-05 0
0.00012982 4.18199e-05 0
0.000128915 4.26216e-05 0
0.000126366 4.47574e-05 0
0.000127331 4.30908e-05 0
0.000128781 4.44872e-05 0
0.000125336 4.28376e-05 0
0.000130218 4.31077e-05 0
0.000127894 4.16344e-05 0
0.000124774 4.69608e-05 0
0.000127668 4.64148e-05 0
0.000126591 4.8331e-05 0
0.000126722 4.18415e-05 0
0.000125768 4.11931e-05 0
0.000124326 4.13546e-05 0
0.00012505 4.025e-05 0
0.000122408 4.50118e-05 0
0.000120276 4.47432e-05 0
0.00012139 4.32235e-05 0
0.000124336 4.44132e-05 0
0.000123056 4.27595e-05 0
0.000122977 4.09049e-05 0
0.00012185 4.69217e-05 0
0.000122676 4.85947e-05 0
0.000120525 4.86094e-05 0
0.000121479 4.13153e-05 0
0.000119547 4.24221e-05 0
0.000120249 4.07448e-05 0
0.000119925 3.9625e-05 0
0.000119346 4.06114e-05 0
0.000117479 4.47279e-05 0
0.000114726 4.45259e-05 0
0.00011571 4.27814e-05 0
0.000119443 4.66611e-05 0
0.000117447 4.21596e-05 0
0.000118421 4.0752e-05 0
0.000117409 4.04437e-05 0
0.000116775 4.70073e-05 0
0.0001179 4.855e-05 0
0.000115473 4.84802e-05 0
0.00011685 3.925e-05 0
0.000117875 3.9375e-05 0
0.000115454 4.00551e-05 0
0.0001148 3.9e-05 0
0.000115825 3.9125e-05 0
0.000111704 4.23398e-05 0
0.000113786 4.26731e-05 0
0.000112589 4.43871e-05 0
0.000113234 4.06671e-05 0
0.000114754 4.13371e-05 0
0.0001106 4.42326e-05 0
0.000109703 4.24261e-05 0
0.00011275 3.875e-05 0
0.000113775 3.8875e-05 0
0.000110211 4.80875e-05 0
0.000108244 4.71951e-05 0
0.000109312 4.58413e-05 0
0.000111755 3.99116e-05 0
0.00010944 3.92972e-05 0
0.000110415 4.05876e-05 0
0.000108839 4.07536e-05 0
0.000106472 4.76905e-05 0
0.000107274 4.57868e-05 0
0.000108011 3.92415e-05 0
0.000106885 4.04365e-05 0
0.000106625 3.88708e-05 0
0.000105286 4.19254e-05 0
0.000105055 3.95469e-05 0
0.000104215 4.39764e-05 0
0.000106346 4.40629e-05 0
0.000100945 4.51249e-05 0
0.000102825 4.5614e-05 0
0.000101189 4.68452e-05 0
0.000107625 3.8125e-05 0
0.000105575 3.7875e-05 0
0.0001066 3.8e-05 0
0.000103352 4.76905e-05 0
0.000101803 4.8465e-05 0
0.000103685 3.89398e-05 0
0.00010245 3.8825e-05 0
0.000103525 3.7625e-05 0
0.000101092 3.99779e-05 0
0.000101267 3.82619e-05 0
0.000101382 4.2025e-05 0
0.000103187 4.05286e-05 0
0.000103359 4.24605e-05 0
9.87383e-05 4.5447e-05 0
9.99411e-05 4.35161e-05 0
9.744e-05 4.33145e-05 0
0.00010045 3.725e-05 0
0.000101475 3.7375e-05 0
9.70845e-05 4.65215e-05 0
9.52614e-05 4.67664e-05 0
9.61768e-05 4.49944e-05 0
9.9729e-05 3.87704e-05 0
9.78901e-05 3.9598e-05 0
9.85823e-05 3.81492e-05 0
9.62289e-05 3.93709e-05 0
9.74259e-05 3.81279e-05 0
9.7375e-05 3.6875e-05 0
9.63045e-05 3.76631e-05 0
9.58e-05 5e-05 0
9.32e-05 5e-05 0
9.47542e-05 4.8457e-05 0
9.49675e-05 3.85246e-05 0
9.36214e-05 3.89472e-05 0
9.40006e-05 3.74906e-05 0
9.66411e-05 4.12573e-05 0
9.44241e-05 4.07079e-05 0
9.03569e-05 4.24993e-05 0
9.21701e-05 4.02409e-05 0
9.27439e-05 4.27744e-05 0
8.89795e-05 4.09067e-05 0
9.03071e-05 4.0248e-05 0
9.25447e-05 3.77721e-05 0
9.3275e-05 3.6375e-05 0
9.07708e-05 3.87127e-05 0
9.11303e-05 3.70839e-05 0
9.11933e-05 4.55145e-05 0
9.30678e-05 4.73279e-05 0
9.11886e-05 4.82603e-05 0
8.87724e-05 3.88076e-05 0
8.99595e-05 3.75116e-05 0
9.02e-05 3.6e-05 0
8.89241e-05 3.6954e-05 0
8.36977e-05 4.59472e-05 0
8.36223e-05 4.83578e-05 0
8.20467e-05 4.74142e-05 0
8.71227e-05 4.03557e-05 0
8.61e-05 3.55e-05 0
8.68368e-05 3.65714e-05 0
8.5484e-05 3.6588e-05 0
8.47735e-05 4.02845e-05 0
8.23121e-05 4.21599e-05 0
8.26582e-05 3.98147e-05 0
8.46943e-05 4.2454e-05 0
8.38832e-05 3.78613e-05 0
8.35569e-05 3.63808e-05 0
8.44098e-05 3.6291e-05 0
8.5075e-05 3.5375e-05 0
8.51465e-05 4.77163e-05 0
8.3025e-05 3.5125e-05 0
8.22824e-05 3.68659e-05 0
8.1446e-05 3.57362e-05 0
8.05884e-05 3.71794e-05 0
7.53471e-05 4.77524e-05 0
7.38313e-05 4.73927e-05 0
7.39102e-05 4.61526e-05 0
7.9826e-05 3.58588e-05 0
7.88607e-05 3.76287e-05 0
7.81733e-05 3.57987e-05 0
8.16783e-05 3.84471e-05 0
8.07975e-05 4.04095e-05 0
7.52138e-05 4.04775e-05 0
7.67682e-05 4.17043e-05 0
7.49617e-05 4.21803e-05 0
7.52903e-05 3.84008e-05 0
7.38293e-05 3.93136e-05 0
[...]
CELL_DATA 58684
VECTORS velocity DOUBLE
73.9471 0.337284 0
85.0753 -0.000187257 0
85.0494 0.000227792 0
85.0783 -0.000327612 0
85.051 7.96484e-05 0
85.0845 -0.00203206 0
85.0573 0.00218082 0
77.8553 -0.00327316 0
77.8585 -0.023168 0
77.9241 -0.00448393 0
78.0094 -0.00755788 0
78.0536 -0.406839 0
77.8735 -0.109807 0
78.1239 -0.134081 0
77.8586 -0.185856 0
78.2919 -0.172433 0
77.8552 -0.111318 0
78.6055 -0.156665 0
77.8883 -0.317284 0
79.0701 -0.11449 0
77.8701 -0.113098 0
78.5814 -0.366924 0
84.7961 -2.16695 0
77.8528 0.0114412 0
77.8468 0.0511826 0
77.8529 0.0249834 0
77.8632 0.140292 0
77.8582 0.0222276 0
77.8642 0.188708 0
77.9238 0.0494317 0
77.8658 0.144572 0
77.8913 0.0318052 0
77.8264 0.145244 0
78.1837 0.163713 0
77.9055 1.12876 0
78.0635 0.0673706 0
77.8789 0.175624 0
78.2478 0.354403 0
85.0881 -0.00141079 0
85.0915 -0.000421721 0
85.1003 -0.00373451 0
85.1033 -0.00395674 0
85.1078 -0.000793654 0
85.1152 -0.00397434 0
85.1182 -0.00612857 0
85.1207 -0.0039523 0
85.1252 -0.00063444 0
85.1321 -0.00644549 0
85.1338 -0.00574158 0
85.1378 -0.000941172 0
85.1461 -0.00708758 0
85.1477 -0.00824603 0
85.1498 -0.00546221 0
85.1541 -0.000901653 0
85.1604 -0.00828493 0
85.1617 -0.00703748 0
85.1657 -0.00128208 0
85.1747 -0.0102712 0
85.1761 -0.0106676 0
85.1778 -0.0063966 0
85.184 -0.000583455 0
85.1879 -0.0127076 0
85.1936 -0.00889665 0
85.2029 -0.000689337 0
85.2052 -0.01495 0
85.2072 -0.0137161 0
85.2124 -0.0102209 0
85.2185 -0.000763955 0
85.2215 -0.0157614 0
85.2268 -0.0107656 0
85.2338 -0.00105434 0
85.2373 -0.0178734 0
85.2421 -0.0131481 0
85.2498 -0.020892 0
85.2549 -0.000616504 0
85.2594 -0.0157971 0
85.2644 -0.0101071 0
85.2746 -0.00127579 0
85.2785 -0.0220596 0
85.2981 -0.0171783 0
85.2818 -0.0178571 0
85.2992 -0.00104724 0
85.3079 -0.0121045 0
85.302 -0.0226912 0
85.331 -0.0146892 0
85.3245 -0.0191417 0
85.3224 -0.0258435 0
85.3342 -0.0320009 0
85.3567 -0.0203327 0
85.371 -0.02828 0
85.3472 -0.0244314 0
85.3636 -0.0356956 0
85.3824 -0.0278511 0
85.3791 -0.0274063 0
85.3874 -0.0378831 0
85.42 -0.0344959 0
85.4027 -0.0310639 0
85.4109 -0.0406557 0
85.4309 -0.0468749 0
85.4376 -0.0353142 0
85.4658 -0.0437775 0
85.4403 -0.0373216 0
85.4697 -0.0139157 0
85.4698 -0.0475675 0
85.4917 -0.0447133 0
85.4826 -0.0493953 0
85.4968 -0.0140566 0
85.4984 -0.0525942 0
85.5159 -0.058839 0
85.5404 -0.0334526 0
85.5352 -0.0357639 0
85.5183 -0.0490727 0
85.5551 -0.0637599 0
85.5575 -0.0266775 0
85.5895 -0.0579522 0
85.5758 -0.0376148 0
85.6192 -0.00172512 0
85.599 -0.0652533 0
85.6161 -0.076136 0
85.6536 -0.0666055 0
85.6786 -0.051101 0
85.6285 -0.041113 0
85.6634 -0.0766898 0
85.7091 -0.051933 0
85.6995 -0.0811059 0
85.6773 -0.0291483 0
85.7137 -0.072738 0
85.7383 -0.0263362 0
85.7297 -0.0857574 0
85.7612 -0.0996486 0
85.8071 -0.0598425 0
85.7943 -0.0822527 0
85.7694 -0.0379412 0
85.8396 -0.108475 0
85.7842 -0.0299085 0
85.814 -0.107346 0
85.8909 -0.120581 0
85.9114 -0.0845533 0
85.9313 -0.106748 0
85.8808 -0.101623 0
85.9111 -0.110398 0
85.8825 -0.0500679 0
85.9618 -0.12838 0
85.9904 -0.140712 0
86.0372 -0.0936551 0
85.9481 -0.0686808 0
85.9874 -0.120885 0
86.0122 -0.144579 0
85.9797 -0.0281474 0
86.0933 -0.153996 0
86.1074 -0.171795 0
86.1651 -0.105393 0
86.0638 -0.0951293 0
86.1267 -0.144061 0
86.1512 -0.172785 0
86.0947 -0.0297721 0
86.171 -0.200161 0
86.2295 -0.215287 0
86.2555 -0.153645 0
86.2452 -0.176165 0
86.312 -0.162908 0
86.2793 -0.223444 0
86.2977 -0.058564 0
86.2923 -0.209489 0
86.3793 -0.214455 0
86.3628 -0.0698877 0
86.4575 -0.256541 0
86.4915 -0.237143 0
86.4742 -0.148861 0
86.5559 -0.115854 0
86.4607 -0.261404 0
86.504 -0.28941 0
86.5237 -0.0593471 0
86.5912 -0.29216 0
86.6504 -0.301968 0
86.5624 -0.216728 0
86.6438 -0.134195 0
86.6882 -0.182077 0
86.6839 -0.345796 0
86.7477 -0.117171 0
86.7629 -0.32136 0
86.8016 -0.315957 0
86.8286 -0.370303 0
86.7901 -0.00313035 0
86.946 -0.369628 0
86.8173 -0.284792 0
86.9625 -0.256986 0
87.0435 -0.300997 0
87.0002 -0.408471 0
87.0681 -0.413582 0
86.9254 -0.092556 0
87.113 -0.40014 0
87.1427 -0.463358 0
87.1589 -0.446273 0
87.2847 -0.102991 0
87.1459 -0.354424 0
87.3343 -0.511891 0
87.3999 -0.389017 0
87.3121 -0.326873 0
87.4046 -0.542248 0
87.3859 -0.534739 0
87.269 -0.091667 0
87.506 -0.595296 0
87.5482 -0.557317 0
87.7673 -0.105378 0
87.662 -0.613335 0
87.4893 -0.427137 0
87.7803 -0.389634 0
87.8504 -0.503093 0
87.7255 -0.556449 0
87.752 -0.662203 0
87.8306 -0.238419 0
87.9479 -0.635023 0
87.8961 -0.736542 0
88.1104 -0.743646 0
88.0768 -0.00933253 0
88.0602 -0.615124 0
88.1261 -0.769855 0
87.9575 -0.191201 0
88.1973 -0.810629 0
88.3049 -0.463305 0
88.2473 -0.848214 0
88.4912 -0.257438 0
88.4397 -0.723507 0
88.4014 -0.855526 0
88.3435 -0.132991 0
88.5577 -0.881151 0
88.7607 -0.855219 0
88.5907 -0.733622 0
88.6441 -0.438702 0
88.797 -0.985176 0
88.8156 -0.383547 0
88.9974 -0.0657591 0
88.7386 -0.771576 0
88.9275 -0.970609 0
89.0228 -1.04543 0
89.0644 -0.323307 0
89.1841 -0.895487 0
89.3559 -0.977906 0
89.1546 -0.111019 0
89.5183 -0.946577 0
89.4238 -1.06293 0
89.2724 -0.788478 0
89.3475 -0.377789 0
89.4699 -0.439623 0
89.5947 -1.06306 0
89.5454 -0.00470786 0
89.7111 -1.1345 0
89.8592 -1.06957 0
89.8112 -1.12981 0
89.8068 -0.240924 0
89.9311 -0.915515 0
90.203 -0.918173 0
89.7886 -0.00280125 0
90.2978 -1.09535 0
90.492 -0.921324 0
90.1145 -0.670458 0
89.9441 -0.274152 0
90.4855 -1.04427 0
90.1155 -0.337544 0
89.9539 -0.0136176 0
90.4181 -0.693309 0
90.7673 -0.937291 0
90.9436 -0.8685 0
90.1311 -0.0620591 0
90.9004 -0.580089 0
91.039 -0.768643 0
90.0134 0.0383361 0
91.1878 -0.750825 0
91.3858 -0.614067 0
91.0029 -0.19242 0
89.7967 0.0120484 0
91.5536 -0.381142 0
90.693 0.232333 0
90.9331 0.346978 0
91.4272 -0.232817 0
91.2056 0.0233388 0
91.9009 0.016979 0
89.9311 0.390382 0
91.8833 -0.086202 0
91.4419 0.478013 0
92.1002 0.567936 0
89.8415 0.115083 0
92.0661 1.27066 0
91.8422 1.49802 0
88.5302 0.200251 0
92.2893 0.967609 0
92.1962 1.44194 0
89.869 1.51068 0
89.6077 0.723402 0
91.1307 1.16615 0
92.101 1.97409 0
88.777 0.334927 0
91.6203 2.86028 0
92.2805 2.22315 0
92.2954 2.44956 0
88.0462 1.42784 0
90.6581 2.97583 0
91.6808 3.24852 0
88.0238 0.236775 0
91.4991 3.74837 0
91.1559 3.61622 0
90.2134 5.23186 0
85.8061 0.397288 0
91.3309 4.94343 0
89.362 3.56325 0
87.5191 1.57557 0
87.1527 2.99758 0
91.1033 5.4458 0
89.989 5.88036 0
86.2378 0.611693 0
90.0575 6.7055 0
85.0607 0.00144217 0
85.064 0.000404569 0
85.0718 0.00321358 0
85.0744 0.00355868 0
85.0784 0.000770743 0
85.0855 0.00376995 0
85.0881 0.00556881 0
85.0906 0.00376671 0
85.095 0.000648281 0
85.1014 0.00593542 0
85.1031 0.00517073 0
85.1066 0.000913076 0
85.1145 0.00668451 0
85.1161 0.0078463 0
85.118 0.00519689 0
85.1222 0.000885594 0
85.1284 0.00819261 0
85.1298 0.00697344 0
85.1337 0.00126932 0
85.1426 0.010108 0
85.144 0.010494 0
85.1539 0.0130898 0
85.1458 0.00625393 0
85.16 0.00814152 0
85.1696 0.0130625 0
85.1614 0.00904471 0
85.1754 0.013804 0
85.1806 0.0103105 0
85.188 0.0164787 0
85.178 0.00895534 0
85.1949 0.0110108 0
85.2037 0.0186087 0
85.1953 0.00921042 0
85.2185 0.0215017 0
85.2206 0.0201864 0
85.226 0.014904 0
85.2131 0.0111148 0
85.2283 0.01618 0
85.2436 0.0149937 0
85.2334 0.0103814 0
85.2589 0.0270605 0
85.2573 0.0110316 0
85.268 0.0174796 0
85.2544 0.0141148 0
85.272 0.0230457 0
85.2931 0.0262157 0
85.3011 0.0150388 0
85.2898 0.024605 0
85.3107 0.0281735 0
85.3138 0.0318619 0
85.336 0.0154631 0
85.3275 0.0205839 0
85.3419 0.028586 0
85.3566 0.040743 0
85.3638 0.0192326 0
85.3688 0.0312384 0
85.3794 0.0430698 0
85.3938 0.0252965 0
85.3732 0.0311648 0
85.4029 0.0477256 0
85.405 0.046172 0
85.4148 0.0292103 0
85.4271 0.0207953 0
85.4377 0.0436447 0
85.3778 0.0138274 0
85.4549 0.04982 0
85.4886 0.0600095 0
85.4711 0.0508831 0
85.4556 0.0298898 0
85.5021 0.0609462 0
85.51 0.0530512 0
85.5322 0.0268895 0
85.4922 0.0500359 0
85.5359 0.0565087 0
85.5542 0.0654519 0
85.5013 0.0156556 0
85.5428 0.0471626 0
85.5917 0.076304 0
85.5529 0.0385825 0
85.6039 0.065974 0
85.6381 0.0808866 0
85.6121 0.0596418 0
85.6353 0.0240408 0
85.6497 0.0713546 0
85.6688 0.0822296 0
85.6529 0.0211598 0
85.6963 0.0913459 0
85.6604 0.0671573 0
85.722 0.0748525 0
85.6794 0.0517544 0
85.7346 0.099967 0
85.8014 0.120874 0
85.7607 0.0298002 0
85.7568 0.0829998 0
85.8311 0.128391 0
85.8074 0.0918585 0
85.7465 0.0371928 0
85.8495 0.119902 0
85.8759 0.1265 0
85.8367 0.0312016 0
85.8852 0.0550671 0
85.9142 0.110474 0
85.9322 0.148067 0
85.8579 0.0787973 0
85.9673 0.142125 0
85.9926 0.154154 0
86.0033 0.0511106 0
85.9722 0.0934571 0
86.0483 0.172914 0
86.0445 0.147476 0
85.9372 0.0490518 0
86.072 0.165781 0
86.1277 0.177048 0
86.1067 0.0694732 0
86.0904 0.15252 0
86.194 0.212156 0
86.1809 0.163056 0
86.0442 0.0525456 0
86.2217 0.197568 0
86.3011 0.242602 0
86.1765 0.0691041 0
86.2885 0.192578 0
86.27 0.0889233 0
86.338 0.202991 0
86.244 0.115444 0
86.3703 0.256716 0
86.4373 0.256574 0
86.3396 0.0704647 0
86.427 0.251832 0
86.5158 0.290757 0
86.4791 0.0735166 0
86.394 0.212873 0
86.509 0.248831 0
86.5723 0.293718 0
86.4481 0.0458457 0
86.5875 0.26792 0
86.7025 0.34922 0
86.6833 0.292721 0
86.6193 0.0879206 0
86.7684 0.306591 0
86.5622 0.113272 0
86.5912 0.258667 0
86.7545 0.339057 0
86.8784 0.383183 0
86.8914 0.393412 0
86.5853 0.00569933 0
87.0019 0.448494 0
87.0168 0.43567 0
87.0501 0.385827 0
86.9825 0.188726 0
87.1029 0.202961 0
87.0641 0.431152 0
86.8109 0.117003 0
87.2022 0.483915 0
87.1935 0.477337 0
87.2049 0.429378 0
87.091 0.124748 0
87.296 0.475263 0
87.4351 0.594762 0
87.2858 0.223182 0
87.2214 0.235391 0
87.3947 0.481774 0
87.5765 0.615374 0
87.13 0.145932 0
87.6209 0.652413 0
87.667 0.63288 0
87.4708 0.123528 0
87.8257 0.725303 0
87.8641 0.694198 0
87.9476 0.598029 0
87.707 0.262497 0
87.6691 0.296895 0
87.8494 0.671052 0
87.559 0.192422 0
88.0349 0.800425 0
88.0964 0.752603 0
88.1009 0.694437 0
87.8115 0.10494 0
88.2926 0.816367 0
88.3144 0.834077 0
88.1405 0.467071 0
88.4248 0.656028 0
88.1634 0.379426 0
88.378 0.799088 0
88.0363 0.240341 0
88.5538 0.928616 0
88.584 0.895615 0
88.0862 0.193472 0
88.6653 0.825262 0
88.8693 0.947326 0
88.771 0.92795 0
88.6543 0.215703 0
89.1018 0.987656 0
89.1514 1.0564 0
88.5961 0.641483 0
89.0391 0.782298 0
88.6678 0.390359 0
89.368 1.10837 0
88.8732 0.120666 0
89.4401 1.07379 0
89.4369 1.01455 0
88.6704 0.0962639 0
89.3661 0.919537 0
89.7922 1.08005 0
89.894 1.0869 0
89.3208 0.274342 0
89.9771 1.05664 0
90.0303 1.12781 0
89.2857 0.691925 0
90.0479 0.735592 0
89.5009 0.263783 0
90.212 1.12071 0
89.536 0.0963549 0
90.373 1.03943 0
90.4708 1.02022 0
89.3425 0.0711609 0
90.2854 0.8433 0
90.786 0.938789 0
90.9608 0.871151 0
89.8307 0.165962 0
90.7886 0.814877 0
91.1123 0.81543 0
90.3868 0.713223 0
90.9044 0.388823 0
89.9345 0.0999635 0
90.869 0.730302 0
89.9654 0.0350108 0
91.3749 0.701045 0
91.469 0.550412 0
89.8431 0.0376834 0
91.1726 0.245323 0
91.6337 0.258573 0
91.8325 0.1197 0
90.0158 -0.105827 0
91.9303 -0.0896024 0
91.9807 -0.225814 0
90.1797 -0.291178 0
91.9984 -0.259567 0
91.2034 -0.689711 0
90.4266 -0.11723 0
90.2214 -0.0157622 0
92.1434 -0.556309 0
91.9088 -0.945853 0
92.3446 -1.13317 0
89.9077 -0.00864456 0
91.6323 -1.3907 0
92.3571 -1.87081 0
89.887 -0.131954 0
91.4621 -1.35413 0
92.3404 -2.41066 0
90.9234 -1.81429 0
89.8848 -0.678126 0
92.1545 -2.75641 0
92.0196 -3.04713 0
90.8594 -1.1582 0
90.3539 -3.18884 0
88.361 -2.61329 0
91.6665 -3.07501 0
88.7353 -0.414819 0
91.6599 -4.02829 0
89.1515 7.29566 0
89.8674 6.53122 0
84.5851 1.92658 0
89.0524 7.24968 0
86.855 6.62551 0
88.4015 7.87574 0
85.1561 0.759071 0
87.4404 8.07231 0
86.2922 7.93862 0
83.948 0.961372 0
86.3604 8.46471 0
91.576 -4.44308 0
88.9673 -0.256509 0
91.3165 -4.78452 0
90.0998 -5.16927 0
89.5473 -4.45235 0
88.1152 -0.272245 0
90.3391 -5.7606 0
85.0926 7.7263 0
89.7015 -7.02665 0
87.8827 -1.41001 0
89.3853 -6.7906 0
88.5364 -7.74682 0
82.8277 2.35889 0
88.1082 -7.59942 0
89.2888 -4.26153 0
88.5936 -6.89118 0
86.7661 -5.09681 0
85.834 -0.840122 0
87.6724 -6.99146 0
86.8975 -7.39457 0
84.476 8.15212 0
86.9648 -7.40823 0
86.6455 -0.457198 0
85.957 -7.75191 0
85.4491 -8.45402 0
85.1757 -0.565217 0
84.3812 -8.59171 0
84.8866 -6.31113 0
83.0774 -0.654851 0
83.3848 -8.74077 0
83.4816 -4.84734 0
85.1453 -3.82618 0
83.9303 -7.486 0
82.843 -7.83048 0
85.4543 4.39006 0
81.9569 0.529788 0
84.8756 2.93487 0
83.5715 -0.076364 0
82.2984 -8.49228 0
84.1102 7.72075 0
81.6946 0.383493 0
83.5597 6.56553 0
81.4508 -8.35476 0
83.1551 -1.71024 0
80.7849 -6.09765 0
83.5334 8.79663 0
80.6214 2.01612 0
83.4362 8.72127 0
81.2855 7.26619 0
80.9034 0.410007 0
81.8898 7.64447 0
81.3741 -6.34767 0
82.6866 -0.470716 0
80.6136 -8.48153 0
80.6361 -8.24806 0
82.2521 8.2099 0
80.3752 7.82223 0
80.2444 0.0428536 0
81.4087 8.0782 0
79.6355 5.05689 0
80.2326 2.2766 0
79.7078 -8.428 0
80.6903 -1.09124 0
80.0381 -8.30286 0
79.2529 8.27103 0
79.1024 -7.69932 0
79.8594 -1.07301 0
79.4735 -3.38465 0
77.8644 -7.39318 0
80.8834 -4.09125 0
77.7293 -7.15118 0
79.3888 -0.290698 0
76.8271 -6.83074 0
79.0416 2.85352 0
79.6441 0.459983 0
78.8493 6.94554 0
79.0766 0.11832 0
78.6299 8.14838 0
78.3594 7.64484 0
78.7796 0.186217 0
77.6252 6.69053 0
78.5808 0.133752 0
78.2126 -6.39184 0
79.3855 -0.574219 0
79.4257 6.01949 0
77.8346 0.731915 0
77.1871 6.28157 0
76.7181 -6.79069 0
79.4968 -0.228055 0
75.1115 -5.80771 0
77.8417 -0.440371 0
75.9351 -5.71564 0
78.3492 2.53997 0
77.8501 0.121114 0
78.9422 -5.20085 0
77.8508 -0.112764 0
75.2459 -5.38055 0
76.6118 5.66735 0
76.6692 -4.2452 0
77.8536 -0.23969 0
75.5656 -4.60917 0
77.699 3.13004 0
75.5704 1.98472 0
76.1311 4.90098 0
77.5427 -0.981042 0
75.3989 -5.10658 0
77.7826 0.40226 0
76.0205 6.61343 0
77.5069 -2.36826 0
77.8528 -0.0837482 0
75.0791 -4.60778 0
75.7622 5.90756 0
77.7746 0.715428 0
75.7475 4.61753 0
75.4631 4.55639 0
77.7744 0.38201 0
74.6775 4.05935 0
74.2222 -4.13613 0
77.815 -0.293452 0
73.9226 -4.12978 0
76.3637 -1.96574 0
77.8374 -0.198955 0
73.3085 -2.81492 0
74.7238 5.04942 0
77.6913 0.617411 0
76.0114 3.23542 0
73.9272 -2.55591 0
77.7074 -0.312454 0
73.2739 -2.32844 0
73.6211 3.71517 0
77.7151 0.263011 0
74.0282 3.49958 0
74.3362 2.85446 0
77.8493 0.033692 0
73.4942 3.04095 0
74.6442 -1.50528 0
77.6304 -0.537418 0
73.9238 -1.32725 0
72.7341 -0.844056 0
76.9031 -0.919173 0
72.7851 -0.714962 0
76.5927 0.956317 0
77.7626 0.0802958 0
75.6302 2.42018 0
73.277 2.44927 0
77.6014 0.0588239 0
72.8554 1.54721 0
77.2853 -0.233945 0
77.829 -0.112946 0
72.7841 -0.234862 0
73.3157 -0.092042 0
77.7855 -0.0657199 0
75.5743 0.305822 0
73.4838 0.523858 0
77.8062 -0.0615945 0
76.8389 -5.62995 0
77.8674 -0.431137 0
77.8321 0.134141 0
77.6315 6.85057 0
78.5494 -7.70416 0
81.6044 -0.940548 0
80.0793 0.993088 0
81.1694 8.58136 0
77.7653 0.279898 0
74.1731 4.83132 0
73.6746 -2.82317 0
77.7906 -0.203459 0
77.8105 -0.5733 0
77.263 -3.65125 0
77.8518 0.799932 0
77.8885 0.196859 0
77.7725 -2.65251e-05 0
73.3526 2.04471 0
79.0334 0.464343 0
78.1829 1.56939 0
78.49 -1.37006 0
79.904 -0.687657 0
85.2631 -1.27163 0
84.85 -8.43934 0
86.7084 8.06412 0
84.8122 0.469004 0
77.5631 1.65754 0
79.1738 7.96543 0
78.1382 -7.04774 0
78.9559 -2.30634 0
76.6986 -1.45528 0
74.3299 -0.217691 0
75.803 5.80207 0
77.8708 1.88196 0
77.7166 -1.78434 0
74.4476 -4.61272 0
91.0728 -5.41851 0
87.811 -0.664916 0
87.4024 0.795982 0
91.5013 4.52848 0
77.8464 -0.813373 0
77.8607 -0.0429233 0
77.8421 0.148757 0
78.7128 0.753023 0
82.629 0.736756 0
82.2608 4.09448 0
80.796 -1.98323 0
83.7801 -1.74204 0
81.2035 4.87996 0
84.042 8.2826 0
82.8905 -8.65569 0
82.085 -1.91501 0
86.0092 1.61141 0
87.0815 5.02971 0
85.6697 -2.79066 0
86.7786 -0.0444276 0
89.8415 -0.261259 0
92.3114 -1.38042 0
92.1349 0.580804 0
89.0712 0.0309431 0
89.9383 0.000552078 0
91.5141 0.529574 0
91.2867 -0.519367 0
90.1138 0.0482645 0
78.7606 -1.44159 0
78.2748 -0.57191 0
78.1756 1.23326 0
78.9244 0.944417 0
78.036 1.2206 0
77.8529 0.237492 0
77.8481 -0.108024 0
77.9781 -1.12136 0
88.7868 0.964691 0
90.0068 1.9114 0
89.1002 -1.16135 0
89.2822 -0.174436 0
75.712 -0.956856 0
77.8025 -0.154832 0
77.3345 -0.439296 0
77.8096 -0.371098 0
77.8244 0.206743 0
77.7445 0.966121 0
90.5526 0.962464 0
89.6849 0.150594 0
89.8752 -0.00179059 0
90.2572 -1.05011 0
81.2478 -0.0416333 0
80.5085 -2.81472 0
81.5299 1.79913 0
80.296 0.447408 0
77.5047 4.02505 0
76.9179 7.28589 0
76.6945 -6.23167 0
77.999 -3.21095 0
78.5211 -2.10152 0
77.2917 -2.22321 0
77.5743 4.61942 0
77.9697 2.21798 0
90.1263 0.0605523 0
89.8836 0.14835 0
90.0429 -0.0556928 0
91.014 0.0597276 0
79.3416 -5.40249 0
80.4023 -5.24223 0
80.0168 4.62412 0
80.4791 8.50037 0
78.7347 -3.96424 0
79.8947 -2.30727 0
79.7231 3.10788 0
78.9711 1.52967 0
89.7171 1.15199 0
89.1304 0.139738 0
89.4014 -0.00875203 0
89.2577 -1.03832 0
77.1247 1.00857 0
77.8215 0.0313413 0
89.9458 -0.0515442 0
90.6089 -0.328281 0
90.3107 0.230983 0
89.7526 0.0362434 0
78.5912 -0.952104 0
78.1515 -1.32622 0
78.8575 1.73435 0
78.0725 0.735302 0
77.8666 -0.146126 0
78.0164 -0.694703 0
77.8885 0.314931 0
77.8436 0.136376 0
73.7971 1.70665 0
76.7265 1.51881 0
86.4137 -3.15491 0
89.6943 -6.3734 0
90.6371 5.83733 0
86.1275 2.27951 0
76.5357 -2.29943 0
74.4254 -2.88618 0
88.3668 0.157564 0
88.6569 0.892888 0
87.5691 0.0766876 0
88.2548 0.85623 0
88.6709 -0.871812 0
88.5142 -0.140712 0
87.9811 -0.715647 0
87.9134 -0.0119795 0
89.581 -0.211922 0
89.6852 -0.614665 0
89.5301 0.38713 0
89.2718 0.00572005 0
77.823 0.180337 0
77.5688 0.535543 0
76.2258 0.452452 0
73.8965 0.842495 0
77.7188 -0.246387 0
77.8119 -0.170715 0
77.2268 0.275704 0
77.1323 -0.744118 0
92.154 -2.81165 0
89.0372 -1.76972 0
90.0095 2.25347 0
92.3013 1.68083 0
77.9332 -0.06468 0
78.0039 -0.366732 0
77.8601 0.0499752 0
78.1523 0.259827 0
88.9097 -0.205238 0
88.9199 -0.535961 0
88.9583 0.357473 0
88.5225 0.11519 0
87.3487 0.169656 0
87.5492 0.540338 0
87.562 -0.63206 0
87.4562 -0.153828 0
78.2771 -0.896217 0
79.0843 -2.12271 0
78.5703 1.60635 0
78.2441 1.26909 0
78.8365 2.86881 0
77.3587 1.8432 0
77.9016 -1.91561 0
78.4858 -2.7794 0
90.5101 -0.562791 0
91.4443 0.250256 0
91.6182 -0.239261 0
90.9334 0.610696 0
77.5281 -1.14151 0
77.6307 -1.35843 0
77.6821 1.07692 0
77.1388 1.29858 0
87.342 0.560937 0
87.0176 0.168143 0
87.09 -0.103754 0
87.2697 -0.477305 0
84.5784 4.2609 0
86.5304 7.12321 0
86.0247 -8.38293 0
85.5908 -3.34545 0
74.8969 -3.40667 0
77.2373 -3.49896 0
84.2118 -3.05647 0
84.8298 -1.0957 0
83.2448 0.451592 0
86.4525 3.11312 0
74.4653 4.60274 0
76.4427 2.7202 0
88.1906 -0.0513736 0
88.3688 -0.550722 0
88.2461 0.367038 0
88.1496 0.101322 0
88.2282 -0.372045 0
88.0238 -1.52509 0
88.5691 2.1045 0
87.6057 0.273962 0
82.6389 1.39153 0
80.9725 0.348967 0
82.0454 -0.33294 0
82.6677 -3.10308 0
90.264 0.304468 0
90.5424 0.829968 0
90.7078 -0.905001 0
90.632 -0.028119 0
81.6953 -3.81999 0
82.759 -1.83364 0
82.0042 2.70175 0
84.4626 5.9746 0
86.8668 0.340319 0
86.7332 0.0644896 0
86.9443 -0.102432 0
86.8432 -0.355017 0
87.5805 -0.189375 0
87.7788 -0.00728381 0
87.7461 0.102867 0
87.5355 0.443104 0
79.5999 0.493873 0
79.3697 1.29673 0
79.6099 -1.14398 0
80.407 -0.314747 0
81.0268 2.8148 0
79.5062 1.94184 0
78.8958 -2.82344 0
78.1123 -2.84687 0
89.883 -0.497188 0
89.637 -0.285707 0
89.4687 0.38472 0
90.3824 0.652788 0
79.4546 3.83115 0
79.9673 2.55644 0
79.0185 -0.820643 0
78.8677 -0.290752 0
78.7264 0.263993 0
79.373 0.886279 0
76.3438 -0.869295 0
77.3528 -1.34061 0
91.5356 -3.70349 0
89.0957 -2.08991 0
88.5842 3.77269 0
91.9213 3.77178 0
77.7829 -0.863929 0
77.8665 -0.139965 0
77.7983 0.200941 0
77.8567 0.840439 0
78.0949 0.0877649 0
78.1057 0.62172 0
78.2399 -0.344451 0
78.3678 -0.0208 0
75.1613 -0.265999 0
72.8006 0.150812 0
84.5777 3.21661 0
88.5333 2.99238 0
87.2551 -2.52051 0
87.8545 -4.98347 0
77.3593 2.056 0
76.9472 1.14308 0
77.8514 -0.024518 0
77.5707 -0.0478228 0
79.9324 6.80494 0
77.9592 4.03698 0
79.634 -4.28143 0
78.5969 -8.06655 0
77.2272 0.78393 0
77.706 0.4243 0
89.5647 0.515369 0
89.9261 1.12709 0
89.5955 -1.03483 0
89.5532 -0.198361 0
87.1104 -0.124736 0
87.3629 -0.0837345 0
87.3313 0.0716111 0
87.1893 0.414229 0
92.0318 0.49262 0
90.91 1.42197 0
90.9327 -0.593255 0
92.1699 -0.755542 0
77.3541 0.10897 0