# vtk DataFile Version 3.0
Unstructured Grid for Triangles
ASCII
DATASET UNSTRUCTURED_GRID
POINTS 29612 DOUBLE
-2.72397e-05 1.23686e-06 0
-2.95789e-05 9.5838e-07 0
-2.77865e-05 -3.1235e-07 0
0.0002024 5e-05 0
0.000203975 4.9875e-05 0
0.000205 5e-05 0
0.000203975 -4.9875e-05 0
0.0002024 -5e-05 0
0.000205 -5e-05 0
0.00020295 4.975e-05 0
0.00020295 -4.975e-05 0
0.000201925 4.9625e-05 0
0.000201925 -4.9625e-05 0
-5.29747e-05 -4.79887e-05 0
-5.5e-05 -5e-05 0
-5.24e-05 -5e-05 0
-5.05983e-05 -4.84325e-05 0
-4.98e-05 -5e-05 0
-4.72e-05 -5e-05 0
-4.83864e-05 -4.87761e-05 0
-4.46e-05 -5e-05 0
-4.59e-05 -4.84239e-05 0
-4.29453e-05 -4.24878e-05 0
-4.47486e-05 -4.20717e-05 0
-4.41829e-05 -4.36609e-05 0
-5.12578e-05 -4.62101e-05 0
-4.93077e-05 -4.53594e-05 0
-5.0706e-05 -4.39006e-05 0
-4.19243e-05 -4.77545e-05 0
-4.40307e-05 -4.71837e-05 0
-4.3691e-05 -4.86724e-05 0
-5.16129e-05 -4.20948e-05 0
-4.95355e-05 -4.15432e-05 0
-5.11646e-05 -4.0128e-05 0
-3.94697e-05 -4.81197e-05 0
-4.06302e-05 -4.55143e-05 0
-5.37257e-05 -3.88197e-05 0
-5.31099e-05 -4.07297e-05 0
-5.23982e-05 -3.88328e-05 0
-3.70063e-05 -4.72956e-05 0
-3.68e-05 -5e-05 0
-3.5308e-05 -4.85302e-05 0
-5.072e-05 -3.7867e-05 0
-4.85506e-05 -3.83975e-05 0
-4.90949e-05 -3.59622e-05 0
-3.37127e-05 -4.84331e-05 0
-3.16e-05 -5e-05 0
-3.26495e-05 -4.7415e-05 0
-5.5e-05 -3.5e-05 0
-5.31201e-05 -3.70361e-05 0
-5.28367e-05 -3.46817e-05 0
-3.63898e-05 -4.48809e-05 0
-3.83315e-05 -4.60336e-05 0
-3.26269e-06 -4.15503e-05 0
-5.99662e-06 -4.09556e-05 0
-5.46944e-06 -4.29488e-05 0
-5.29747e-05 4.79887e-05 0
-5.5e-05 5e-05 0
-5.5e-05 4.75e-05 0
-5.5e-05 4.5e-05 0
-5.34834e-05 4.29171e-05 0
-5.26943e-05 4.42611e-05 0
-5.34026e-05 4.60176e-05 0
-5.31099e-05 4.07297e-05 0
-5.11672e-05 4.01178e-05 0
-5.16129e-05 4.20948e-05 0
-5.24e-05 5e-05 0
-5.05983e-05 4.84325e-05 0
-5.31201e-05 3.70361e-05 0
-5.072e-05 3.7867e-05 0
-5.23982e-05 3.88328e-05 0
-4.8341e-05 4.69132e-05 0
-4.83679e-05 4.87539e-05 0
-5.28367e-05 3.46817e-05 0
-5.5e-05 3.25e-05 0
-5.25657e-05 3.28474e-05 0
-4.98e-05 5e-05 0
-5.30382e-05 3.125e-05 0
-4.19243e-05 4.77545e-05 0
-4.40015e-05 4.7335e-05 0
-4.25917e-05 4.63678e-05 0
-4.35138e-05 2.62661e-05 0
-4.14982e-05 2.74462e-05 0
-4.35654e-05 2.85217e-05 0
-4.59e-05 4.84239e-05 0
-4.36852e-05 4.87027e-05 0
-4.46e-05 5e-05 0
-5.33308e-05 2.92503e-05 0
-5.5e-05 2.75e-05 0
-5.23377e-05 2.76953e-05 0
-4.25282e-05 4.46352e-05 0
-4.09368e-05 4.35728e-05 0
-4.06302e-05 4.55143e-05 0
0.0002009 4.95e-05 0
0.0001998 5e-05 0
0.000199875 4.9375e-05 0
0.00019885 4.925e-05 0
0.0001972 5e-05 0
0.000197825 4.9125e-05 0
0.0001968 4.9e-05 0
0.000195775 4.8875e-05 0
0.0001946 5e-05 0
0.00019475 4.875e-05 0
0.000193725 4.8625e-05 0
0.000192 5e-05 0
0.0001927 4.85e-05 0
0.000191675 4.8375e-05 0
0.00019065 4.825e-05 0
0.0001894 5e-05 0
0.000189625 4.8125e-05 0
0.0001886 4.8e-05 0
0.0001868 5e-05 0
0.000187575 4.7875e-05 0
0.00018655 4.775e-05 0
0.000185515 4.8575e-05 0
0.0001842 5e-05 0
0.0001845 4.75e-05 0
0.000185525 4.7625e-05 0
0.000182564 4.829e-05 0
0.0001816 5e-05 0
0.00018245 4.725e-05 0
0.000183475 4.7375e-05 0
0.000181425 4.7125e-05 0
0.000180295 4.82657e-05 0
0.000179 5e-05 0
0.000179375 4.6875e-05 0
0.0001804 4.7e-05 0
0.000178168 4.80619e-05 0
0.0001764 5e-05 0
0.000177325 4.6625e-05 0
0.00017835 4.675e-05 0
0.000176428 4.76631e-05 0
0.0001763 4.65e-05 0
0.0001738 5e-05 0
0.0001751 4.84164e-05 0
0.000175275 4.6375e-05 0
0.000174025 4.75632e-05 0
0.0001712 5e-05 0
0.000172615 4.78449e-05 0
0.0001722 4.6e-05 0
0.000173225 4.6125e-05 0
0.00017015 4.575e-05 0
0.000171243 4.7381e-05 0
0.000169554 4.79999e-05 0
0.0001686 5e-05 0
0.000167507 4.79751e-05 0
0.000168498 4.64861e-05 0
0.000166 5e-05 0
0.00016558 4.71459e-05 0
0.000167135 4.62887e-05 0
0.0001681 4.55e-05 0
0.00016605 4.525e-05 0
0.000167075 4.5375e-05 0
0.000164059 4.61599e-05 0
0.00016394 4.79552e-05 0
0.000162881 4.6615e-05 0
0.000162975 4.4875e-05 0
0.000165025 4.5125e-05 0
0.000164 4.5e-05 0
0.000161754 4.58641e-05 0
0.000161722 4.78101e-05 0
0.000159956 4.58294e-05 0
0.000160925 4.4625e-05 0
0.00016195 4.475e-05 0
0.000157667 4.60322e-05 0
0.000158875 4.4375e-05 0
0.000159194 4.80155e-05 0
0.0001599 4.45e-05 0
0.00015785 4.425e-05 0
0.000155808 4.56757e-05 0
0.000155647 4.76701e-05 0
0.000154059 4.66642e-05 0
0.000153756 4.50083e-05 0
0.000154839 4.50446e-05 0
0.000156825 4.4125e-05 0
0.000151954 4.80508e-05 0
0.000154052 4.8477e-05 0
0.000153 5e-05 0
0.000154775 4.3875e-05 0
0.000152142 4.56625e-05 0
0.000152821 4.45753e-05 0
0.00015375 4.375e-05 0
0.0001504 5e-05 0
0.000149644 4.85168e-05 0
0.000151787 4.43178e-05 0
0.000152725 4.3625e-05 0
0.000150675 4.3375e-05 0
0.0001517 4.35e-05 0
0.000148119 4.50887e-05 0
0.000148072 4.75757e-05 0
0.000146584 4.63516e-05 0
0.000150008 4.6396e-05 0
0.000149351 4.4543e-05 0
0.00015061 4.46252e-05 0
0.0001476 4.3e-05 0
0.000148625 4.3125e-05 0
0.000146492 4.82975e-05 0
0.000144888 4.73562e-05 0
0.000146676 4.44259e-05 0
0.000145255 4.53656e-05 0
0.000145652 4.38669e-05 0
0.000141401 4.79821e-05 0
0.0001426 5e-05 0
0.00014 5e-05 0
0.000144374 4.38862e-05 0
0.00014555 4.275e-05 0
0.0001435 4.25e-05 0
0.000144525 4.2625e-05 0
0.000142746 4.38121e-05 0
0.000141288 4.43191e-05 0
0.000141707 4.32778e-05 0
0.00013921 4.38992e-05 0
0.000140355 4.5932e-05 0
0.000138302 4.5922e-05 0
0.000142912 4.58869e-05 0
0.000140592 4.30037e-05 0
0.00014145 4.225e-05 0
0.000136458 4.5869e-05 0
0.000137106 4.4063e-05 0
0.0001394 4.2e-05 0
0.000138259 4.28915e-05 0
0.000137484 4.77094e-05 0
0.000139166 4.78902e-05 0
0.00013586 4.78984e-05 0
0.000133449 4.78649e-05 0
0.000134717 4.61848e-05 0
0.000137256 4.25134e-05 0
0.000135323 4.24541e-05 0
0.000136325 4.1625e-05 0
0.000136122 4.2876e-05 0
0.000131206 4.47284e-05 0
0.000133168 4.56738e-05 0
0.000131773 4.65243e-05 0
0.000134756 4.40343e-05 0
0.000132747 4.36463e-05 0
0.000133483 4.26786e-05 0
0.000131081 4.1867e-05 0
0.000132382 4.22815e-05 0
0.000131507 4.3122e-05 0
0.000131059 4.80123e-05 0
0.00013325 4.125e-05 0
0.00012915 4.075e-05 0
0.00012982 4.18199e-05 0
0.000128915 4.26216e-05 0
0.000126366 4.47574e-05 0
0.000127331 4.30908e-05 0
0.000128781 4.44872e-05 0
0.000125336 4.28376e-05 0
0.000130218 4.31077e-05 0
0.000127894 4.16344e-05 0
0.000124774 4.69608e-05 0
0.000127668 4.64148e-05 0
0.000126591 4.8331e-05 0
0.000126722 4.18415e-05 0
0.000125768 4.11931e-05 0
0.000124326 4.13546e-05 0
0.00012505 4.025e-05 0
0.000122408 4.50118e-05 0
0.000120276 4.47432e-05 0
0.00012139 4.32235e-05 0
0.000124336 4.44132e-05 0
0.000123056 4.27595e-05 0
0.000122977 4.09049e-05 0
0.00012185 4.69217e-05 0
0.000122676 4.85947e-05 0
0.000120525 4.86094e-05 0
0.000121479 4.13153e-05 0
0.000119547 4.24221e-05 0
0.000120249 4.07448e-05 0
0.000119925 3.9625e-05 0
0.000119346 4.06114e-05 0
0.000117479 4.47279e-05 0
0.000114726 4.45259e-05 0
0.00011571 4.27814e-05 0
0.000119443 4.66611e-05 0
0.000117447 4.21596e-05 0
0.000118421 4.0752e-05 0
0.000117409 4.04437e-05 0
0.000116775 4.70073e-05 0
0.0001179 4.855e-05 0
0.000115473 4.84802e-05 0
0.00011685 3.925e-05 0
0.000117875 3.9375e-05 0
0.000115454 4.00551e-05 0
0.0001148 3.9e-05 0
0.000115825 3.9125e-05 0
0.000111704 4.23398e-05 0
0.000113786 4.26731e-05 0
0.000112589 4.43871e-05 0
0.000113234 4.06671e-05 0
0.000114754 4.13371e-05 0
0.0001106 4.42326e-05 0
0.000109703 4.24261e-05 0
0.00011275 3.875e-05 0
0.000113775 3.8875e-05 0
0.000110211 4.80875e-05 0
0.000108244 4.71951e-05 0
0.000109312 4.58413e-05 0
0.000111755 3.99116e-05 0
0.00010944 3.92972e-05 0
0.000110415 4.05876e-05 0
0.000108839 4.07536e-05 0
0.000106472 4.76905e-05 0
0.000107274 4.57868e-05 0
0.000108011 3.92415e-05 0
0.000106885 4.04365e-05 0
0.000106625 3.88708e-05 0
0.000105286 4.19254e-05 0
0.000105055 3.95469e-05 0
0.000104215 4.39764e-05 0
0.000106346 4.40629e-05 0
0.000100945 4.51249e-05 0
0.000102825 4.5614e-05 0
0.000101189 4.68452e-05 0
0.000107625 3.8125e-05 0
0.000105575 3.7875e-05 0
0.0001066 3.8e-05 0
0.000103352 4.76905e-05 0
0.000101803 4.8465e-05 0
0.000103685 3.89398e-05 0
0.00010245 3.8825e-05 0
0.000103525 3.7625e-05 0
0.000101092 3.99779e-05 0
0.000101267 3.82619e-05 0
0.000101382 4.2025e-05 0
0.000103187 4.05286e-05 0
0.000103359 4.24605e-05 0
9.87383e-05 4.5447e-05 0
9.99411e-05 4.35161e-05 0
9.744e-05 4.33145e-05 0
0.00010045 3.725e-05 0
0.000101475 3.7375e-05 0
9.70845e-05 4.65215e-05 0
9.52614e-05 4.67664e-05 0
9.61768e-05 4.49944e-05 0
9.9729e-05 3.87704e-05 0
9.78901e-05 3.9598e-05 0
9.85823e-05 3.81492e-05 0
9.62289e-05 3.93709e-05 0
9.74259e-05 3.81279e-05 0
9.7375e-05 3.6875e-05 0
9.63045e-05 3.76631e-05 0
9.58e-05 5e-05 0
9.32e-05 5e-05 0
9.47542e-05 4.8457e-05 0
9.49675e-05 3.85246e-05 0
9.36214e-05 3.89472e-05 0
9.40006e-05 3.74906e-05 0
9.66411e-05 4.12573e-05 0
9.44241e-05 4.07079e-05 0
9.03569e-05 4.24993e-05 0
9.21701e-05 4.02409e-05 0
9.27439e-05 4.27744e-05 0
8.89795e-05 4.09067e-05 0
9.03071e-05 4.0248e-05 0
9.25447e-05 3.77721e-05 0
9.3275e-05 3.6375e-05 0
9.07708e-05 3.87127e-05 0
9.11303e-05 3.70839e-05 0
9.11933e-05 4.55145e-05 0
9.30678e-05 4.73279e-05 0
9.11886e-05 4.82603e-05 0
8.87724e-05 3.88076e-05 0
8.99595e-05 3.75116e-05 0
9.02e-05 3.6e-05 0
8.89241e-05 3.6954e-05 0
8.36977e-05 4.59472e-05 0
8.36223e-05 4.83578e-05 0
8.20467e-05 4.74142e-05 0
8.71227e-05 4.03557e-05 0
8.61e-05 3.55e-05 0
8.68368e-05 3.65714e-05 0
8.5484e-05 3.6588e-05 0
8.47735e-05 4.02845e-05 0
8.23121e-05 4.21599e-05 0
8.26582e-05 3.98147e-05 0
8.46943e-05 4.2454e-05 0
8.38832e-05 3.78613e-05 0
8.35569e-05 3.63808e-05 0
8.44098e-05 3.6291e-05 0
8.5075e-05 3.5375e-05 0
8.51465e-05 4.77163e-05 0
8.3025e-05 3.5125e-05 0
8.22824e-05 3.68659e-05 0
8.1446e-05 3.57362e-05 0
8.05884e-05 3.71794e-05 0
7.53471e-05 4.77524e-05 0
7.38313e-05 4.73927e-05 0
7.39102e-05 4.61526e-05 0
7.9826e-05 3.58588e-05 0
7.88607e-05 3.76287e-05 0
7.81733e-05 3.57987e-05 0
8.16783e-05 3.84471e-05 0
8.07975e-05 4.04095e-05 0
7.52138e-05 4.04775e-05 0
7.67682e-05 4.17043e-05 0
7.49617e-05 4.21803e-05 0
7.52903e-05 3.84008e-05 0
7.38293e-05 3.93136e-05 0
[...]
CELL_DATA 58684
VECTORS velocity DOUBLE
73.9131 0.337384 0
85.6569 -0.000112134 0
85.6308 0.000197852 0
85.6595 0.000353899 0
85.6318 -0.000787213 0
85.6654 -0.00217252 0
85.6379 0.00243835 0
77.8519 -0.00349466 0
77.8536 -0.0230023 0
77.9133 -0.004705 0
77.9948 -0.00785719 0
78.0367 -0.406384 0
77.8658 -0.109785 0
78.1057 -0.133947 0
77.8518 -0.185927 0
78.2698 -0.172543 0
77.8517 -0.111128 0
78.5779 -0.15651 0
77.8786 -0.317132 0
79.0376 -0.114678 0
77.8669 -0.112747 0
78.5546 -0.366454 0
84.7422 -2.16447 0
77.8515 0.011327 0
77.8441 0.0511109 0
77.8517 0.0249909 0
77.8576 0.140006 0
77.8532 0.0220837 0
77.8595 0.188726 0
77.9133 0.0494715 0
77.8624 0.144475 0
77.8826 0.0316231 0
77.8227 0.145369 0
78.1639 0.163755 0
77.8874 1.12787 0
78.0471 0.067205 0
77.8757 0.175127 0
78.2263 0.354215 0
85.6676 -0.00225022 0
85.6705 -0.000330619 0
85.6786 -0.0032085 0
85.6804 -0.00445149 0
85.6834 -0.000464975 0
85.6903 -0.00333242 0
85.6926 -0.00613173 0
85.6938 -0.00468193 0
85.6971 -0.000567033 0
85.7033 -0.00609243 0
85.704 -0.00618334 0
85.706 -0.000550686 0
85.7138 -0.00653847 0
85.7145 -0.00838065 0
85.7154 -0.00614945 0
85.718 -0.000874417 0
85.7234 -0.00798901 0
85.7237 -0.00727317 0
85.7253 -0.000872933 0
85.7336 -0.00997594 0
85.7338 -0.0108038 0
85.7347 -0.00674865 0
85.7386 -0.000567045 0
85.7427 -0.0135708 0
85.7453 -0.00929853 0
85.7524 -0.00115162 0
85.7553 -0.0153703 0
85.7555 -0.014927 0
85.7591 -0.0106113 0
85.7629 -0.000926872 0
85.7654 -0.0168179 0
85.7692 -0.0112514 0
85.7726 -0.000809843 0
85.7767 -0.0188953 0
85.7804 -0.0143524 0
85.7867 -0.021715 0
85.7873 -0.000767088 0
85.7922 -0.0163731 0
85.7953 -0.0102902 0
85.8009 -0.00149128 0
85.8055 -0.0234723 0
85.8188 -0.0179444 0
85.8077 -0.019226 0
85.8183 -0.00176451 0
85.8243 -0.0125446 0
85.8209 -0.0236717 0
85.8412 -0.0157202 0
85.8367 -0.0207222 0
85.8379 -0.027459 0
85.8465 -0.0343794 0
85.8599 -0.0217821 0
85.8726 -0.0302639 0
85.8543 -0.0265787 0
85.8671 -0.0384139 0
85.8779 -0.0299751 0
85.8772 -0.0288726 0
85.8846 -0.0404161 0
85.908 -0.0361209 0
85.8916 -0.0322498 0
85.9019 -0.0433374 0
85.9172 -0.0488963 0
85.9176 -0.0360614 0
85.9394 -0.045654 0
85.9223 -0.0398978 0
85.9397 -0.0149436 0
85.9452 -0.0496529 0
85.9608 -0.0463224 0
85.9549 -0.0519206 0
85.9588 -0.0132802 0
85.9673 -0.0550051 0
85.9813 -0.0621095 0
85.9921 -0.0350105 0
85.9895 -0.0371886 0
85.9777 -0.0508957 0
86.008 -0.0666346 0
86.0034 -0.0277923 0
86.0339 -0.060197 0
86.0194 -0.0389989 0
86.047 -0.00232126 0
86.042 -0.0679032 0
86.0554 -0.0800753 0
86.0838 -0.0695432 0
86.0988 -0.0538822 0
86.0571 -0.0422407 0
86.092 -0.0800572 0
86.122 -0.0546314 0
86.1195 -0.0847414 0
86.0946 -0.0315236 0
86.13 -0.0761252 0
86.1407 -0.0284261 0
86.1436 -0.0889595 0
86.1695 -0.103201 0
86.1986 -0.0622923 0
86.1929 -0.0865497 0
86.1651 -0.0402867 0
86.2306 -0.11245 0
86.176 -0.0318337 0
86.2108 -0.111499 0
86.2728 -0.125142 0
86.2853 -0.0882711 0
86.3011 -0.110646 0
86.2622 -0.105 0
86.2875 -0.11479 0
86.2525 -0.0510483 0
86.3298 -0.132893 0
86.3549 -0.146223 0
86.3867 -0.0974167 0
86.3086 -0.0726734 0
86.3484 -0.125798 0
86.3703 -0.149355 0
86.3317 -0.0297599 0
86.4386 -0.159347 0
86.452 -0.178444 0
86.4928 -0.110183 0
86.4043 -0.0982154 0
86.4649 -0.150901 0
86.4869 -0.178384 0
86.4264 -0.0316626 0
86.5054 -0.206904 0
86.5559 -0.222601 0
86.5708 -0.158192 0
86.5657 -0.182037 0
86.6194 -0.167179 0
86.5972 -0.231125 0
86.5994 -0.0612536 0
86.6076 -0.217309 0
86.6826 -0.22177 0
86.6566 -0.0715082 0
86.7515 -0.263906 0
86.7795 -0.243725 0
86.7602 -0.153919 0
86.8267 -0.118637 0
86.7561 -0.269819 0
86.7952 -0.298246 0
86.7962 -0.0611874 0
86.87 -0.300112 0
86.9222 -0.308975 0
86.8388 -0.221946 0
86.9072 -0.137117 0
86.9463 -0.185358 0
86.9547 -0.354207 0
86.996 -0.118965 0
87.0228 -0.328251 0
87.0562 -0.322268 0
87.0831 -0.377343 0
87.0316 -0.00372702 0
87.1881 -0.375245 0
87.0662 -0.289801 0
87.194 -0.260273 0
87.2681 -0.303806 0
87.2392 -0.414114 0
87.2988 -0.41835 0
87.1548 -0.0938794 0
87.3374 -0.403651 0
87.3674 -0.466976 0
87.3808 -0.449483 0
87.4765 -0.102601 0
87.3635 -0.356119 0
87.5439 -0.51394 0
87.5929 -0.387981 0
87.5098 -0.326196 0
87.6047 -0.541847 0
87.5909 -0.536263 0
87.4645 -0.0919039 0
87.6985 -0.593354 0
87.7366 -0.555686 0
87.9182 -0.105849 0
87.8391 -0.60895 0
87.6774 -0.426393 0
87.9388 -0.386212 0
88.0066 -0.497207 0
87.8945 -0.551717 0
87.9245 -0.656994 0
87.9764 -0.23514 0
88.1017 -0.628179 0
88.058 -0.728712 0
88.2545 -0.734252 0
88.1994 -0.0100016 0
88.2 -0.606394 0
88.2681 -0.758908 0
88.0917 -0.188209 0
88.3346 -0.798356 0
88.4229 -0.456889 0
88.3821 -0.835052 0
88.5878 -0.253788 0
88.5544 -0.712388 0
88.5227 -0.841353 0
88.4468 -0.130631 0
88.6695 -0.866368 0
88.8548 -0.840517 0
88.6902 -0.720223 0
88.7344 -0.431871 0
88.8914 -0.966987 0
88.8902 -0.377531 0
89.054 -0.0645237 0
88.8294 -0.758529 0
89.0118 -0.953004 0
89.1033 -1.0257 0
89.1217 -0.31827 0
89.2485 -0.880035 0
89.4119 -0.961658 0
89.1997 -0.108519 0
89.5637 -0.931818 0
89.478 -1.04497 0
89.3264 -0.774882 0
89.3867 -0.371559 0
89.5047 -0.432833 0
89.6375 -1.04604 0
89.5631 -0.00511689 0
89.7487 -1.11653 0
89.8888 -1.05413 0
89.8436 -1.11274 0
89.8144 -0.237548 0
89.9523 -0.902977 0
90.2131 -0.908056 0
89.7877 -0.00317815 0
90.3075 -1.08261 0
90.4913 -0.912452 0
90.1238 -0.662657 0
89.9467 -0.270647 0
90.4873 -1.03392 0
90.1151 -0.334193 0
89.9368 -0.0134293 0
90.4146 -0.687135 0
90.7584 -0.930531 0
90.9296 -0.863462 0
90.1129 -0.0617688 0
90.8812 -0.577238 0
91.0212 -0.765263 0
89.9863 0.0383735 0
91.1665 -0.748978 0
91.3594 -0.614555 0
90.9765 -0.193305 0
89.7594 0.0117727 0
91.5228 -0.384293 0
90.6589 0.229861 0
90.896 0.343223 0
91.3955 -0.235899 0
91.1728 0.020099 0
91.8627 0.0109046 0
89.89 0.388494 0
91.846 -0.0919278 0
91.4015 0.471987 0
92.0566 0.559103 0
89.8026 0.114425 0
92.0186 1.26093 0
91.7934 1.48821 0
88.4798 0.200164 0
92.2427 0.957284 0
92.1469 1.43158 0
89.8189 1.50545 0
89.5614 0.720622 0
91.0846 1.15953 0
92.05 1.9634 0
88.7259 0.334293 0
91.5682 2.84928 0
92.2292 2.21109 0
92.2439 2.43748 0
87.9921 1.42474 0
90.6042 2.96648 0
91.6267 3.23696 0
87.9703 0.235898 0
91.4454 3.73632 0
91.1004 3.60633 0
90.1574 5.22092 0
85.7511 0.397085 0
91.2751 4.93132 0
89.3071 3.55459 0
87.4645 1.57257 0
87.0976 2.99268 0
91.0474 5.43344 0
89.9329 5.86933 0
86.1818 0.610784 0
90.0017 6.69361 0
85.64 0.00217842 0
85.6426 0.000325374 0
85.6496 0.0026421 0
85.6511 0.00418647 0
85.6536 0.000435745 0
85.6603 0.00318445 0
85.6622 0.00578174 0
85.6634 0.0045673 0
85.6665 0.000566577 0
85.6723 0.00561063 0
85.673 0.00542868 0
85.6745 0.000523558 0
85.6819 0.0062931 0
85.6825 0.00807292 0
85.6833 0.00591357 0
85.6857 0.00085869 0
85.6912 0.00805424 0
85.6915 0.00741387 0
85.6931 0.000875637 0
85.7013 0.0097732 0
85.7016 0.0106786 0
85.7097 0.0136633 0
85.7025 0.00664527 0
85.7134 0.0080385 0
85.7209 0.0132839 0
85.7131 0.00950748 0
85.7238 0.0149077 0
85.7274 0.0107071 0
85.7337 0.0167731 0
85.7253 0.00928824 0
85.7375 0.011635 0
85.7453 0.0190162 0
85.7375 0.00945163 0
85.7559 0.0221865 0
85.7565 0.0219138 0
85.7602 0.01558 0
85.7501 0.0111578 0
85.7614 0.0168259 0
85.7726 0.0158877 0
85.7646 0.0106208 0
85.7838 0.0286242 0
85.7799 0.0119298 0
85.7893 0.0183774 0
85.7792 0.0145732 0
85.7915 0.0241692 0
85.8093 0.0278872 0
85.8121 0.0161101 0
85.8048 0.025833 0
85.8217 0.0293717 0
85.823 0.0340263 0
85.8372 0.0167569 0
85.8315 0.022039 0
85.8443 0.030581 0
85.8563 0.0430023 0
85.857 0.0206161 0
85.8643 0.0328386 0
85.873 0.0452744 0
85.8777 0.0257193 0
85.8631 0.0323875 0
85.8901 0.0495878 0
85.8903 0.0487303 0
85.8933 0.0306114 0
85.9025 0.0218831 0
85.9121 0.0455264 0
85.866 0.0133126 0
85.928 0.0521769 0
85.9549 0.063251 0
85.9388 0.0532666 0
85.9242 0.0310499 0
85.9639 0.0641049 0
85.9698 0.0559047 0
85.979 0.0279576 0
85.9524 0.051808 0
85.9875 0.0593604 0
86.002 0.0680969 0
85.9559 0.0159679 0
85.9901 0.0491972 0
86.0316 0.0798756 0
85.997 0.0400354 0
86.0406 0.0690581 0
86.067 0.0840714 0
86.0421 0.0616827 0
86.0567 0.0252562 0
86.0742 0.0744719 0
86.091 0.0852795 0
86.0687 0.0211576 0
86.1129 0.0946408 0
86.0784 0.0698571 0
86.13 0.0778535 0
86.0933 0.0543309 0
86.143 0.103161 0
86.1963 0.124659 0
86.1524 0.0315369 0
86.1543 0.0852087 0
86.2214 0.132158 0
86.196 0.0956345 0
86.1422 0.0394039 0
86.2353 0.124842 0
86.2553 0.131024 0
86.2117 0.0325483 0
86.2537 0.0571556 0
86.284 0.115288 0
86.3028 0.153271 0
86.2328 0.080924 0
86.3312 0.147301 0
86.3521 0.159751 0
86.3502 0.0538463 0
86.3289 0.0969218 0
86.3981 0.178863 0
86.3919 0.152234 0
86.2927 0.0493731 0
86.416 0.171544 0
86.4633 0.184174 0
86.4364 0.072292 0
86.4308 0.157661 0
86.5228 0.219292 0
86.5067 0.169015 0
86.3815 0.054111 0
86.5458 0.205432 0
86.6141 0.250458 0
86.4948 0.0711262 0
86.5986 0.199609 0
86.5762 0.092582 0
86.6415 0.209048 0
86.5544 0.118913 0
86.6748 0.265232 0
86.7324 0.265229 0
86.6334 0.0721508 0
86.7213 0.259492 0
86.8015 0.299496 0
86.7536 0.0763229 0
86.6904 0.219021 0
86.7898 0.255215 0
86.8511 0.302172 0
86.7277 0.0466437 0
86.8616 0.275415 0
86.968 0.357666 0
86.9449 0.299056 0
86.8776 0.0903549 0
87.0216 0.311851 0
86.8281 0.116649 0
86.8636 0.26459 0
87.0123 0.345968 0
87.1264 0.389894 0
87.1367 0.399663 0
86.8466 0.00703848 0
87.239 0.454441 0
87.2515 0.44172 0
87.2757 0.388638 0
87.2057 0.190891 0
87.3159 0.204532 0
87.2928 0.435015 0
87.05 0.118544 0
87.4204 0.487579 0
87.4096 0.479869 0
87.4164 0.430893 0
87.3011 0.124635 0
87.5013 0.47643 0
87.6342 0.593991 0
87.479 0.222746 0
87.4242 0.236411 0
87.5889 0.479909 0
87.7632 0.612732 0
87.3384 0.147154 0
87.8049 0.648911 0
87.8456 0.629409 0
87.6445 0.123063 0
87.9927 0.718073 0
88.028 0.68781 0
88.0972 0.590645 0
87.8635 0.260729 0
87.8326 0.295306 0
88.0097 0.663791 0
87.7291 0.192813 0
88.1852 0.789597 0
88.2408 0.742633 0
88.2383 0.683772 0
87.9553 0.103986 0
88.4221 0.803711 0
88.441 0.820281 0
88.269 0.460524 0
88.5369 0.645282 0
88.2868 0.374801 0
88.4982 0.785876 0
88.167 0.237763 0
88.6639 0.912113 0
88.6909 0.880278 0
88.2088 0.189945 0
88.7621 0.810251 0
88.9559 0.929998 0
88.863 0.910602 0
88.7372 0.212132 0
89.1751 0.969965 0
89.222 1.0365 0
88.6929 0.631169 0
89.106 0.768585 0
88.7537 0.384405 0
89.4255 1.08803 0
88.9381 0.118505 0
89.4925 1.05523 0
89.4868 0.998193 0
88.7478 0.0947684 0
89.415 0.904185 0
89.8248 1.0638 0
89.9214 1.07087 0
89.3595 0.269415 0
89.9992 1.04215 0
90.0507 1.11209 0
89.3366 0.681341 0
90.0609 0.727298 0
89.5275 0.259953 0
90.2249 1.10674 0
89.5568 0.0952529 0
90.3787 1.02811 0
90.4722 1.00999 0
89.3746 0.0699008 0
90.288 0.83461 0
90.7759 0.932264 0
90.9457 0.866427 0
89.8358 0.164136 0
90.7765 0.810637 0
91.0921 0.81271 0
90.3857 0.706623 0
90.882 0.388117 0
89.9296 0.0993091 0
90.8533 0.727398 0
89.9528 0.0347609 0
91.3485 0.701005 0
91.4399 0.552046 0
89.8387 0.0370685 0
91.1428 0.247666 0
91.5993 0.263171 0
91.7953 0.125559 0
89.9834 -0.105456 0
91.8911 -0.0819511 0
91.9393 -0.217976 0
90.1421 -0.28888 0
91.9567 -0.251063 0
91.1606 -0.683665 0
90.3979 -0.115839 0
90.1969 -0.0153384 0
92.0991 -0.546464 0
91.8632 -0.936096 0
92.2968 -1.12204 0
89.8748 -0.0083036 0
91.5834 -1.3818 0
92.3067 -1.85876 0
89.848 -0.131087 0
91.4147 -1.34562 0
92.2886 -2.3981 0
90.8727 -1.806 0
89.8404 -0.675619 0
92.1019 -2.74374 0
91.9664 -3.03471 0
90.8131 -1.15188 0
90.3 -3.17973 0
88.3063 -2.6078 0
91.6123 -3.0639 0
88.6849 -0.412933 0
91.605 -4.01588 0
89.0962 7.2841 0
89.8116 6.51971 0
84.5308 1.92434 0
88.997 7.23848 0
86.8008 6.61699 0
88.3466 7.86459 0
85.1013 0.758038 0
87.3865 8.06185 0
86.2388 7.92934 0
83.8953 0.960521 0
86.3073 8.45483 0
91.5205 -4.43083 0
88.9192 -0.255942 0
91.2609 -4.77205 0
90.0436 -5.15852 0
89.4922 -4.44282 0
88.0621 -0.271375 0
90.2833 -5.74874 0
85.0399 7.71818 0
89.6459 -7.01475 0
87.8281 -1.40718 0
89.3298 -6.77897 0
88.4814 -7.73532 0
82.7768 2.3566 0
88.0536 -7.58849 0
89.2334 -4.25278 0
88.5382 -6.88058 0
86.7116 -5.08979 0
85.7795 -0.838722 0
87.6178 -6.98188 0
86.8436 -7.38521 0
84.4244 8.14377 0
86.9105 -7.39853 0
86.5906 -0.456348 0
85.9038 -7.74323 0
85.3969 -8.44476 0
85.1212 -0.564353 0
84.33 -8.58325 0
84.834 -6.30448 0
83.0261 -0.654156 0
83.3351 -8.73283 0
83.4301 -4.84276 0
85.0914 -3.82162 0
83.8789 -7.47878 0
82.7934 -7.82371 0
85.4005 4.38485 0
81.9083 0.52936 0
84.8218 2.93158 0
83.5188 -0.0762741 0
82.2498 -8.48515 0
84.0589 7.71303 0
81.6465 0.383155 0
83.5089 6.5593 0
81.4032 -8.34809 0
83.1038 -1.70858 0
80.7387 -6.09325 0
83.4829 8.78828 0
80.5774 2.01428 0
83.3863 8.71333 0
81.2384 7.26057 0
80.8587 0.409534 0
81.8414 7.63809 0
81.3265 -6.34253 0
82.6357 -0.470054 0
80.5669 -8.47514 0
80.5898 -8.24198 0
82.2032 8.20295 0
80.329 7.81645 0
80.2028 0.043004 0
81.3608 8.07174 0
79.5931 5.05324 0
80.1903 2.27446 0
79.6627 -8.42221 0
80.6465 -1.09014 0
79.9926 -8.29688 0
79.208 8.26533 0
79.0582 -7.6941 0
79.8196 -1.07209 0
79.4333 -3.3822 0
77.8219 -7.38865 0
80.8378 -4.08814 0
77.6871 -7.14687 0
79.3528 -0.290648 0
76.786 -6.82681 0
79.0043 2.85141 0
79.6059 0.459695 0
78.8054 6.94077 0
79.0439 0.118485 0
78.5856 8.14294 0
78.3159 7.63992 0
78.7497 0.186283 0
77.5834 6.68655 0
78.554 0.133706 0
78.1708 -6.38786 0
79.3493 -0.573855 0
79.3826 6.01536 0
77.8219 0.730993 0
77.1458 6.27773 0
76.6774 -6.7868 0
79.4603 -0.227695 0
75.0724 -5.80485 0
77.8336 -0.440183 0
75.8961 -5.71265 0
78.3164 2.53821 0
77.8489 0.121234 0
78.9009 -5.19733 0
77.8494 -0.112726 0
75.2074 -5.37788 0
76.572 5.66397 0
76.6326 -4.24268 0
77.8495 -0.23906 0
75.5286 -4.60687 0
77.665 3.12817 0
75.5388 1.98364 0
76.093 4.89838 0
77.5254 -0.980364 0
75.3611 -5.10411 0
77.7759 0.402155 0
75.98 6.60991 0
77.4775 -2.3667 0
77.8518 -0.0836704 0
75.0422 -4.60568 0
75.7225 5.9044 0
77.7631 0.715088 0
75.7106 4.61515 0
75.4256 4.55377 0
77.7673 0.382147 0
74.6411 4.05757 0
74.1852 -4.13409 0
77.8098 -0.293141 0
73.8858 -4.12797 0
76.3339 -1.96417 0
77.8339 -0.198607 0
73.2723 -2.81381 0
74.6864 5.04701 0
77.6783 0.616756 0
75.9781 3.23383 0
73.892 -2.55496 0
77.6985 -0.312592 0
73.2379 -2.32741 0
73.5847 3.71352 0
77.7058 0.262577 0
73.9922 3.49801 0
74.3008 2.85297 0
77.8479 0.0334664 0
73.4581 3.03958 0
74.6112 -1.50468 0
77.6175 -0.536825 0
73.8894 -1.32682 0
72.6983 -0.843562 0
76.8798 -0.918377 0
72.7493 -0.714822 0
76.5672 0.955678 0
77.7565 0.0806895 0
75.5975 2.41856 0
73.2411 2.4484 0
77.5901 0.0587066 0
72.8197 1.54629 0
77.2676 -0.23367 0
77.8265 -0.113099 0
72.7485 -0.234865 0
73.2806 -0.0921422 0
77.7801 -0.0657009 0
75.5446 0.30549 0
73.449 0.523342 0
77.8022 -0.0615107 0
76.7999 -5.6269 0
77.8581 -0.430787 0
77.8296 0.134347 0
77.5891 6.84623 0
78.5058 -7.6992 0
81.557 -0.939482 0
80.0382 0.992289 0
81.1223 8.57479 0
77.7595 0.279896 0
74.1358 4.82909 0
73.6388 -2.822 0
77.7874 -0.20379 0
77.8001 -0.573235 0
77.2279 -3.64883 0
77.8377 0.799502 0
77.8852 0.196357 0
77.7662 5.34985e-05 0
73.3174 2.04384 0
79.0006 0.463944 0
78.1565 1.56806 0
78.4613 -1.36913 0
79.8641 -0.686959 0
85.2083 -1.26987 0
84.7983 -8.43052 0
86.6549 8.05439 0
84.7576 0.46858 0
77.5388 1.65637 0
79.129 7.95996 0
78.0959 -7.04328 0
78.9205 -2.30461 0
76.6729 -1.45468 0
74.2966 -0.217273 0
75.7637 5.79901 0
77.845 1.88033 0
77.6918 -1.78326 0
74.4107 -4.61073 0
91.0169 -5.40597 0
87.7575 -0.663573 0
87.3477 0.794614 0
91.4463 4.51617 0
77.8322 -0.812952 0
77.8573 -0.0426278 0
77.8375 0.148772 0
78.6835 0.752204 0
82.5786 0.736101 0
82.2117 4.09091 0
80.7514 -1.98157 0
83.7275 -1.74008 0
81.157 4.87609 0
83.9911 8.27449 0
82.841 -8.64814 0
82.0362 -1.91336 0
85.954 1.60908 0
87.0267 5.02243 0
85.6149 -2.78701 0
86.7237 -0.044164 0
89.8007 -0.260002 0
92.2627 -1.36898 0
92.0912 0.571573 0
89.0231 0.030492 0
89.9227 0.00114372 0
91.4842 0.531866 0
91.2598 -0.519781 0
90.0864 0.0472179 0
78.7292 -1.4403 0
78.2521 -0.57145 0
78.1509 1.23233 0
78.8924 0.94326 0
78.0141 1.21943 0
77.8488 0.236931 0
77.8468 -0.108225 0
77.9585 -1.12026 0
88.7346 0.962052 0
89.9554 1.90496 0
89.0494 -1.15751 0
89.2357 -0.173562 0
75.6828 -0.956556 0
77.7968 -0.154772 0
77.3177 -0.439278 0
77.8026 -0.370517 0
77.8207 0.207016 0
77.7277 0.965763 0
90.5497 0.953825 0
89.6988 0.149032 0
89.867 -0.00232884 0
90.2688 -1.03766 0
81.2014 -0.0417296 0
80.4649 -2.81242 0
81.4825 1.79754 0
80.2541 0.447003 0
77.4686 4.02233 0
76.8761 7.28165 0
76.6546 -6.22827 0
77.9654 -3.20851 0
78.4897 -2.09964 0
77.2634 -2.22199 0
77.5363 4.61673 0
77.9404 2.2165 0
90.0977 0.0598588 0
89.8472 0.148048 0
90.0131 -0.055321 0
90.9845 0.0624674 0
79.2985 -5.39899 0
80.3573 -5.23849 0
79.9733 4.62081 0
80.4324 8.49386 0
78.6958 -3.96154 0
79.8537 -2.30555 0
79.6822 3.1056 0
78.9376 1.52817 0
89.7546 1.13258 0
89.1784 0.138389 0
89.4291 -0.00918203 0
89.3205 -1.0205 0
77.1028 1.0077 0
77.8185 0.0316052 0
89.9359 -0.0510796 0
90.5935 -0.326557 0
90.2985 0.229761 0
89.7555 0.0359631 0
78.5629 -0.951083 0
78.1274 -1.32497 0
78.8246 1.73273 0
78.0531 0.734937 0
77.8632 -0.146021 0
78.0003 -0.693903 0
77.8788 0.314786 0
77.8405 0.136358 0
73.7624 1.70603 0
76.7002 1.51803 0
86.3582 -3.15043 0
89.6386 -6.3621 0
90.5812 5.82528 0
86.0721 2.27618 0
76.5051 -2.29777 0
74.3907 -2.88495 0
88.4701 0.154442 0
88.7567 0.876927 0
87.7328 0.0765438 0
88.3873 0.842555 0
88.7725 -0.856761 0
88.6063 -0.138934 0
88.1345 -0.707473 0
88.0491 -0.0123409 0
89.6013 -0.209217 0
89.714 -0.606059 0
89.5583 0.381707 0
89.3085 0.00611177 0
77.8188 0.180518 0
77.555 0.534984 0
76.1993 0.452515 0
73.8624 0.842278 0
77.7097 -0.245922 0
77.8084 -0.170902 0
77.2084 0.275855 0
77.1113 -0.743193 0
92.1014 -2.79897 0
88.9847 -1.76477 0
89.9567 2.24643 0
92.2518 1.66925 0
77.9216 -0.0648488 0
77.9886 -0.366807 0
77.8559 0.0495514 0
78.1333 0.25958 0
88.9751 -0.202267 0
88.9935 -0.527434 0
89.0222 0.351471 0
88.6134 0.11384 0
87.5374 0.170777 0
87.7309 0.536814 0
87.7521 -0.62965 0
87.6345 -0.153402 0
78.253 -0.895512 0
79.049 -2.12062 0
78.5395 1.6051 0
78.2188 1.26818 0
78.8002 2.86665 0
77.3324 1.84193 0
77.8754 -1.91428 0
78.4517 -2.77714 0
90.4702 -0.559487 0
91.4115 0.253886 0
91.5847 -0.243217 0
90.8934 0.606342 0
77.5085 -1.14037 0
77.6093 -1.35729 0
77.6637 1.07592 0
77.1152 1.29743 0
87.5494 0.561886 0
87.2377 0.169745 0
87.3033 -0.104092 0
87.4824 -0.479114 0
84.5252 4.25645 0
86.4763 7.11451 0
85.9721 -8.37344 0
85.536 -3.34133 0
74.8616 -3.40506 0
77.2029 -3.49698 0
84.1586 -3.05331 0
84.7755 -1.09454 0
83.1926 0.451048 0
86.3977 3.10838 0
74.4284 4.6007 0
76.4116 2.71883 0
88.3034 -0.0512608 0
88.4838 -0.542225 0
88.3608 0.360608 0
88.267 0.0986777 0
88.1762 -0.371102 0
87.9702 -1.52198 0
88.515 2.09946 0
87.5515 0.273239 0
82.588 1.39014 0
80.927 0.348613 0
81.9966 -0.332442 0
82.6175 -3.10019 0
90.2546 0.30202 0
90.5367 0.823684 0
90.7001 -0.897848 0
90.6068 -0.0289511 0
81.6476 -3.81694 0
82.7082 -1.83193 0
81.9551 2.69929 0
84.4101 5.96844 0
87.1109 0.345693 0
86.979 0.0658328 0
87.1693 -0.102934 0
87.0954 -0.361234 0
87.7489 -0.187751 0
87.9258 -0.00787416 0
87.8967 0.101727 0
87.7168 0.441465 0
79.5625 0.493347 0
79.3336 1.29545 0
79.5717 -1.14316 0
80.3648 -0.314213 0
80.9811 2.81237 0
79.468 1.94025 0
78.8587 -2.82139 0
78.08 -2.84464 0
89.8403 -0.494911 0
89.5942 -0.284612 0
89.4232 0.383464 0
90.3409 0.648913 0
79.4138 3.8285 0
79.9259 2.55411 0
78.9856 -0.819816 0
78.8368 -0.29031 0
78.6973 0.26375 0
79.3365 0.885671 0
76.3171 -0.868697 0
77.3305 -1.33954 0
91.4815 -3.69114 0
89.0423 -2.08455 0
88.5289 3.76516 0
91.8671 3.75934 0
77.7683 -0.86356 0
77.8641 -0.139548 0
77.7947 0.201223 0
77.8423 0.839453 0
78.0773 0.0877811 0
78.0867 0.620992 0
78.2189 -0.344412 0
78.3445 -0.0209133 0
75.1299 -0.265656 0
72.7651 0.150663 0
84.5239 3.21306 0
88.4789 2.9862 0
87.1995 -2.51649 0
87.7987 -4.9756 0
77.3322 2.05451 0
76.9232 1.14191 0
77.8504 -0.0244307 0
77.5586 -0.0474719 0
79.8873 6.79998 0
77.9224 4.03427 0
79.5917 -4.27847 0
78.5532 -8.06157 0
77.2082 0.783779 0
77.6969 0.42428 0
89.5937 0.508168 0
89.9519 1.11058 0
89.6373 -1.01779 0
89.5765 -0.196055 0
87.32 -0.124596 0
87.5463 -0.0833444 0
87.5185 0.0715469 0
87.4039 0.416151 0
91.9887 0.484615 0
90.8618 1.41511 0
90.8918 -0.588345 0