# vtk DataFile Version 3.0
Unstructured Grid for Triangles
ASCII
DATASET UNSTRUCTURED_GRID
POINTS 29612 DOUBLE
-2.72397e-05 1.23686e-06 0
-2.95789e-05 9.5838e-07 0
-2.77865e-05 -3.1235e-07 0
0.0002024 5e-05 0
0.000203975 4.9875e-05 0
0.000205 5e-05 0
0.000203975 -4.9875e-05 0
0.0002024 -5e-05 0
0.000205 -5e-05 0
0.00020295 4.975e-05 0
0.00020295 -4.975e-05 0
0.000201925 4.9625e-05 0
0.000201925 -4.9625e-05 0
-5.29747e-05 -4.79887e-05 0
-5.5e-05 -5e-05 0
-5.24e-05 -5e-05 0
-5.05983e-05 -4.84325e-05 0
-4.98e-05 -5e-05 0
-4.72e-05 -5e-05 0
-4.83864e-05 -4.87761e-05 0
-4.46e-05 -5e-05 0
-4.59e-05 -4.84239e-05 0
-4.29453e-05 -4.24878e-05 0
-4.47486e-05 -4.20717e-05 0
-4.41829e-05 -4.36609e-05 0
-5.12578e-05 -4.62101e-05 0
-4.93077e-05 -4.53594e-05 0
-5.0706e-05 -4.39006e-05 0
-4.19243e-05 -4.77545e-05 0
-4.40307e-05 -4.71837e-05 0
-4.3691e-05 -4.86724e-05 0
-5.16129e-05 -4.20948e-05 0
-4.95355e-05 -4.15432e-05 0
-5.11646e-05 -4.0128e-05 0
-3.94697e-05 -4.81197e-05 0
-4.06302e-05 -4.55143e-05 0
-5.37257e-05 -3.88197e-05 0
-5.31099e-05 -4.07297e-05 0
-5.23982e-05 -3.88328e-05 0
-3.70063e-05 -4.72956e-05 0
-3.68e-05 -5e-05 0
-3.5308e-05 -4.85302e-05 0
-5.072e-05 -3.7867e-05 0
-4.85506e-05 -3.83975e-05 0
-4.90949e-05 -3.59622e-05 0
-3.37127e-05 -4.84331e-05 0
-3.16e-05 -5e-05 0
-3.26495e-05 -4.7415e-05 0
-5.5e-05 -3.5e-05 0
-5.31201e-05 -3.70361e-05 0
-5.28367e-05 -3.46817e-05 0
-3.63898e-05 -4.48809e-05 0
-3.83315e-05 -4.60336e-05 0
-3.26269e-06 -4.15503e-05 0
-5.99662e-06 -4.09556e-05 0
-5.46944e-06 -4.29488e-05 0
-5.29747e-05 4.79887e-05 0
-5.5e-05 5e-05 0
-5.5e-05 4.75e-05 0
-5.5e-05 4.5e-05 0
-5.34834e-05 4.29171e-05 0
-5.26943e-05 4.42611e-05 0
-5.34026e-05 4.60176e-05 0
-5.31099e-05 4.07297e-05 0
-5.11672e-05 4.01178e-05 0
-5.16129e-05 4.20948e-05 0
-5.24e-05 5e-05 0
-5.05983e-05 4.84325e-05 0
-5.31201e-05 3.70361e-05 0
-5.072e-05 3.7867e-05 0
-5.23982e-05 3.88328e-05 0
-4.8341e-05 4.69132e-05 0
-4.83679e-05 4.87539e-05 0
-5.28367e-05 3.46817e-05 0
-5.5e-05 3.25e-05 0
-5.25657e-05 3.28474e-05 0
-4.98e-05 5e-05 0
-5.30382e-05 3.125e-05 0
-4.19243e-05 4.77545e-05 0
-4.40015e-05 4.7335e-05 0
-4.25917e-05 4.63678e-05 0
-4.35138e-05 2.62661e-05 0
-4.14982e-05 2.74462e-05 0
-4.35654e-05 2.85217e-05 0
-4.59e-05 4.84239e-05 0
-4.36852e-05 4.87027e-05 0
-4.46e-05 5e-05 0
-5.33308e-05 2.92503e-05 0
-5.5e-05 2.75e-05 0
-5.23377e-05 2.76953e-05 0
-4.25282e-05 4.46352e-05 0
-4.09368e-05 4.35728e-05 0
-4.06302e-05 4.55143e-05 0
0.0002009 4.95e-05 0
0.0001998 5e-05 0
0.000199875 4.9375e-05 0
0.00019885 4.925e-05 0
0.0001972 5e-05 0
0.000197825 4.9125e-05 0
0.0001968 4.9e-05 0
0.000195775 4.8875e-05 0
0.0001946 5e-05 0
0.00019475 4.875e-05 0
0.000193725 4.8625e-05 0
0.000192 5e-05 0
0.0001927 4.85e-05 0
0.000191675 4.8375e-05 0
0.00019065 4.825e-05 0
0.0001894 5e-05 0
0.000189625 4.8125e-05 0
0.0001886 4.8e-05 0
0.0001868 5e-05 0
0.000187575 4.7875e-05 0
0.00018655 4.775e-05 0
0.000185515 4.8575e-05 0
0.0001842 5e-05 0
0.0001845 4.75e-05 0
0.000185525 4.7625e-05 0
0.000182564 4.829e-05 0
0.0001816 5e-05 0
0.00018245 4.725e-05 0
0.000183475 4.7375e-05 0
0.000181425 4.7125e-05 0
0.000180295 4.82657e-05 0
0.000179 5e-05 0
0.000179375 4.6875e-05 0
0.0001804 4.7e-05 0
0.000178168 4.80619e-05 0
0.0001764 5e-05 0
0.000177325 4.6625e-05 0
0.00017835 4.675e-05 0
0.000176428 4.76631e-05 0
0.0001763 4.65e-05 0
0.0001738 5e-05 0
0.0001751 4.84164e-05 0
0.000175275 4.6375e-05 0
0.000174025 4.75632e-05 0
0.0001712 5e-05 0
0.000172615 4.78449e-05 0
0.0001722 4.6e-05 0
0.000173225 4.6125e-05 0
0.00017015 4.575e-05 0
0.000171243 4.7381e-05 0
0.000169554 4.79999e-05 0
0.0001686 5e-05 0
0.000167507 4.79751e-05 0
0.000168498 4.64861e-05 0
0.000166 5e-05 0
0.00016558 4.71459e-05 0
0.000167135 4.62887e-05 0
0.0001681 4.55e-05 0
0.00016605 4.525e-05 0
0.000167075 4.5375e-05 0
0.000164059 4.61599e-05 0
0.00016394 4.79552e-05 0
0.000162881 4.6615e-05 0
0.000162975 4.4875e-05 0
0.000165025 4.5125e-05 0
0.000164 4.5e-05 0
0.000161754 4.58641e-05 0
0.000161722 4.78101e-05 0
0.000159956 4.58294e-05 0
0.000160925 4.4625e-05 0
0.00016195 4.475e-05 0
0.000157667 4.60322e-05 0
0.000158875 4.4375e-05 0
0.000159194 4.80155e-05 0
0.0001599 4.45e-05 0
0.00015785 4.425e-05 0
0.000155808 4.56757e-05 0
0.000155647 4.76701e-05 0
0.000154059 4.66642e-05 0
0.000153756 4.50083e-05 0
0.000154839 4.50446e-05 0
0.000156825 4.4125e-05 0
0.000151954 4.80508e-05 0
0.000154052 4.8477e-05 0
0.000153 5e-05 0
0.000154775 4.3875e-05 0
0.000152142 4.56625e-05 0
0.000152821 4.45753e-05 0
0.00015375 4.375e-05 0
0.0001504 5e-05 0
0.000149644 4.85168e-05 0
0.000151787 4.43178e-05 0
0.000152725 4.3625e-05 0
0.000150675 4.3375e-05 0
0.0001517 4.35e-05 0
0.000148119 4.50887e-05 0
0.000148072 4.75757e-05 0
0.000146584 4.63516e-05 0
0.000150008 4.6396e-05 0
0.000149351 4.4543e-05 0
0.00015061 4.46252e-05 0
0.0001476 4.3e-05 0
0.000148625 4.3125e-05 0
0.000146492 4.82975e-05 0
0.000144888 4.73562e-05 0
0.000146676 4.44259e-05 0
0.000145255 4.53656e-05 0
0.000145652 4.38669e-05 0
0.000141401 4.79821e-05 0
0.0001426 5e-05 0
0.00014 5e-05 0
0.000144374 4.38862e-05 0
0.00014555 4.275e-05 0
0.0001435 4.25e-05 0
0.000144525 4.2625e-05 0
0.000142746 4.38121e-05 0
0.000141288 4.43191e-05 0
0.000141707 4.32778e-05 0
0.00013921 4.38992e-05 0
0.000140355 4.5932e-05 0
0.000138302 4.5922e-05 0
0.000142912 4.58869e-05 0
0.000140592 4.30037e-05 0
0.00014145 4.225e-05 0
0.000136458 4.5869e-05 0
0.000137106 4.4063e-05 0
0.0001394 4.2e-05 0
0.000138259 4.28915e-05 0
0.000137484 4.77094e-05 0
0.000139166 4.78902e-05 0
0.00013586 4.78984e-05 0
0.000133449 4.78649e-05 0
0.000134717 4.61848e-05 0
0.000137256 4.25134e-05 0
0.000135323 4.24541e-05 0
0.000136325 4.1625e-05 0
0.000136122 4.2876e-05 0
0.000131206 4.47284e-05 0
0.000133168 4.56738e-05 0
0.000131773 4.65243e-05 0
0.000134756 4.40343e-05 0
0.000132747 4.36463e-05 0
0.000133483 4.26786e-05 0
0.000131081 4.1867e-05 0
0.000132382 4.22815e-05 0
0.000131507 4.3122e-05 0
0.000131059 4.80123e-05 0
0.00013325 4.125e-05 0
0.00012915 4.075e-05 0
0.00012982 4.18199e-05 0
0.000128915 4.26216e-05 0
0.000126366 4.47574e-05 0
0.000127331 4.30908e-05 0
0.000128781 4.44872e-05 0
0.000125336 4.28376e-05 0
0.000130218 4.31077e-05 0
0.000127894 4.16344e-05 0
0.000124774 4.69608e-05 0
0.000127668 4.64148e-05 0
0.000126591 4.8331e-05 0
0.000126722 4.18415e-05 0
0.000125768 4.11931e-05 0
0.000124326 4.13546e-05 0
0.00012505 4.025e-05 0
0.000122408 4.50118e-05 0
0.000120276 4.47432e-05 0
0.00012139 4.32235e-05 0
0.000124336 4.44132e-05 0
0.000123056 4.27595e-05 0
0.000122977 4.09049e-05 0
0.00012185 4.69217e-05 0
0.000122676 4.85947e-05 0
0.000120525 4.86094e-05 0
0.000121479 4.13153e-05 0
0.000119547 4.24221e-05 0
0.000120249 4.07448e-05 0
0.000119925 3.9625e-05 0
0.000119346 4.06114e-05 0
0.000117479 4.47279e-05 0
0.000114726 4.45259e-05 0
0.00011571 4.27814e-05 0
0.000119443 4.66611e-05 0
0.000117447 4.21596e-05 0
0.000118421 4.0752e-05 0
0.000117409 4.04437e-05 0
0.000116775 4.70073e-05 0
0.0001179 4.855e-05 0
0.000115473 4.84802e-05 0
0.00011685 3.925e-05 0
0.000117875 3.9375e-05 0
0.000115454 4.00551e-05 0
0.0001148 3.9e-05 0
0.000115825 3.9125e-05 0
0.000111704 4.23398e-05 0
0.000113786 4.26731e-05 0
0.000112589 4.43871e-05 0
0.000113234 4.06671e-05 0
0.000114754 4.13371e-05 0
0.0001106 4.42326e-05 0
0.000109703 4.24261e-05 0
0.00011275 3.875e-05 0
0.000113775 3.8875e-05 0
0.000110211 4.80875e-05 0
0.000108244 4.71951e-05 0
0.000109312 4.58413e-05 0
0.000111755 3.99116e-05 0
0.00010944 3.92972e-05 0
0.000110415 4.05876e-05 0
0.000108839 4.07536e-05 0
0.000106472 4.76905e-05 0
0.000107274 4.57868e-05 0
0.000108011 3.92415e-05 0
0.000106885 4.04365e-05 0
0.000106625 3.88708e-05 0
0.000105286 4.19254e-05 0
0.000105055 3.95469e-05 0
0.000104215 4.39764e-05 0
0.000106346 4.40629e-05 0
0.000100945 4.51249e-05 0
0.000102825 4.5614e-05 0
0.000101189 4.68452e-05 0
0.000107625 3.8125e-05 0
0.000105575 3.7875e-05 0
0.0001066 3.8e-05 0
0.000103352 4.76905e-05 0
0.000101803 4.8465e-05 0
0.000103685 3.89398e-05 0
0.00010245 3.8825e-05 0
0.000103525 3.7625e-05 0
0.000101092 3.99779e-05 0
0.000101267 3.82619e-05 0
0.000101382 4.2025e-05 0
0.000103187 4.05286e-05 0
0.000103359 4.24605e-05 0
9.87383e-05 4.5447e-05 0
9.99411e-05 4.35161e-05 0
9.744e-05 4.33145e-05 0
0.00010045 3.725e-05 0
0.000101475 3.7375e-05 0
9.70845e-05 4.65215e-05 0
9.52614e-05 4.67664e-05 0
9.61768e-05 4.49944e-05 0
9.9729e-05 3.87704e-05 0
9.78901e-05 3.9598e-05 0
9.85823e-05 3.81492e-05 0
9.62289e-05 3.93709e-05 0
9.74259e-05 3.81279e-05 0
9.7375e-05 3.6875e-05 0
9.63045e-05 3.76631e-05 0
9.58e-05 5e-05 0
9.32e-05 5e-05 0
9.47542e-05 4.8457e-05 0
9.49675e-05 3.85246e-05 0
9.36214e-05 3.89472e-05 0
9.40006e-05 3.74906e-05 0
9.66411e-05 4.12573e-05 0
9.44241e-05 4.07079e-05 0
9.03569e-05 4.24993e-05 0
9.21701e-05 4.02409e-05 0
9.27439e-05 4.27744e-05 0
8.89795e-05 4.09067e-05 0
9.03071e-05 4.0248e-05 0
9.25447e-05 3.77721e-05 0
9.3275e-05 3.6375e-05 0
9.07708e-05 3.87127e-05 0
9.11303e-05 3.70839e-05 0
9.11933e-05 4.55145e-05 0
9.30678e-05 4.73279e-05 0
9.11886e-05 4.82603e-05 0
8.87724e-05 3.88076e-05 0
8.99595e-05 3.75116e-05 0
9.02e-05 3.6e-05 0
8.89241e-05 3.6954e-05 0
8.36977e-05 4.59472e-05 0
8.36223e-05 4.83578e-05 0
8.20467e-05 4.74142e-05 0
8.71227e-05 4.03557e-05 0
8.61e-05 3.55e-05 0
8.68368e-05 3.65714e-05 0
8.5484e-05 3.6588e-05 0
8.47735e-05 4.02845e-05 0
8.23121e-05 4.21599e-05 0
8.26582e-05 3.98147e-05 0
8.46943e-05 4.2454e-05 0
8.38832e-05 3.78613e-05 0
8.35569e-05 3.63808e-05 0
8.44098e-05 3.6291e-05 0
8.5075e-05 3.5375e-05 0
8.51465e-05 4.77163e-05 0
8.3025e-05 3.5125e-05 0
8.22824e-05 3.68659e-05 0
8.1446e-05 3.57362e-05 0
8.05884e-05 3.71794e-05 0
7.53471e-05 4.77524e-05 0
7.38313e-05 4.73927e-05 0
7.39102e-05 4.61526e-05 0
7.9826e-05 3.58588e-05 0
7.88607e-05 3.76287e-05 0
7.81733e-05 3.57987e-05 0
8.16783e-05 3.84471e-05 0
8.07975e-05 4.04095e-05 0
7.52138e-05 4.04775e-05 0
7.67682e-05 4.17043e-05 0
7.49617e-05 4.21803e-05 0
7.52903e-05 3.84008e-05 0
7.38293e-05 3.93136e-05 0
[...]
CELL_DATA 58684
VECTORS velocity DOUBLE
74.323 0.337173 0
87.4662 0.000134276 0
87.4401 -3.05123e-05 0
87.4714 -0.00103216 0
87.4442 0.000808384 0
87.4765 -0.00279978 0
87.45 0.00326434 0
77.8866 -0.00109466 0
77.9047 -0.0247841 0
78.0261 -0.00222242 0
78.1489 -0.00451836 0
78.2176 -0.410104 0
77.9452 -0.1097 0
78.3015 -0.135249 0
77.9221 -0.184798 0
78.5102 -0.16995 0
77.8874 -0.112968 0
78.8861 -0.157693 0
77.9794 -0.317949 0
79.4106 -0.110888 0
77.8994 -0.1163 0
78.8532 -0.370407 0
85.5601 -2.17004 0
77.8647 0.0125306 0
77.871 0.0514773 0
77.8639 0.0249676 0
77.9158 0.142669 0
77.9044 0.0236399 0
77.9085 0.188619 0
78.0225 0.049051 0
77.8968 0.145544 0
77.9734 0.0335561 0
77.8605 0.143832 0
78.3767 0.162571 0
78.0833 1.1348 0
78.2218 0.0689275 0
77.9082 0.180036 0
78.4593 0.354671 0
87.4815 -0.00021759 0
87.4866 8.34628e-05 0
87.4948 -0.00533523 0
87.4955 -0.00307144 0
87.5045 0.000300328 0
87.5127 -0.00448044 0
87.5144 -0.0072653 0
87.5165 -0.00373793 0
87.5239 -7.01011e-05 0
87.5301 -0.00717351 0
87.5301 -0.00553489 0
87.5378 -0.000305857 0
87.546 -0.00783806 0
87.5465 -0.00916836 0
87.5481 -0.00521766 0
87.5548 -0.000660218 0
87.5602 -0.00921914 0
87.5599 -0.00746386 0
87.5669 -0.00123926 0
87.5752 -0.0115464 0
87.5754 -0.0117819 0
87.5771 -0.00629774 0
87.5856 -0.000464972 0
87.5879 -0.0149197 0
87.5935 -0.00971086 0
87.6032 -0.00127073 0
87.6046 -0.0173905 0
87.6055 -0.0150643 0
87.6123 -0.0119273 0
87.6179 -0.0013 0
87.6187 -0.0177126 0
87.6254 -0.0128148 0
87.632 -0.00170889 0
87.6333 -0.0200141 0
87.6386 -0.0150929 0
87.6451 -0.0237864 0
87.6505 -0.00107859 0
87.6536 -0.0179867 0
87.6577 -0.0113731 0
87.6669 -0.00217918 0
87.6696 -0.0252626 0
87.6864 -0.0204381 0
87.6728 -0.020546 0
87.6869 -0.00201409 0
87.6932 -0.0131086 0
87.689 -0.0256033 0
87.7124 -0.0163084 0
87.7084 -0.0218719 0
87.7079 -0.0296775 0
87.7175 -0.0360326 0
87.733 -0.0230709 0
87.7465 -0.0326691 0
87.7266 -0.0281616 0
87.7408 -0.0402222 0
87.7536 -0.0307983 0
87.7513 -0.0305313 0
87.7595 -0.0424407 0
87.7854 -0.039378 0
87.7685 -0.0334342 0
87.7779 -0.0450542 0
87.7933 -0.0514518 0
87.795 -0.0381375 0
87.8162 -0.0468653 0
87.7993 -0.0419043 0
87.8165 -0.0140684 0
87.8222 -0.0522354 0
87.838 -0.0492555 0
87.8315 -0.0538104 0
87.835 -0.0142273 0
87.8444 -0.0573387 0
87.8586 -0.0635268 0
87.8677 -0.0361042 0
87.8659 -0.0385074 0
87.8546 -0.0521379 0
87.8848 -0.0678802 0
87.8787 -0.0279097 0
87.9084 -0.0618722 0
87.8942 -0.0400418 0
87.9185 -0.003643 0
87.9181 -0.0703596 0
87.9306 -0.080146 0
87.956 -0.0709898 0
87.9679 -0.0540488 0
87.9282 -0.0420853 0
87.9641 -0.0810006 0
87.988 -0.0548489 0
87.9886 -0.0848365 0
87.9607 -0.0308926 0
87.9987 -0.0770011 0
88.0016 -0.0296565 0
88.0102 -0.0885155 0
88.0333 -0.101303 0
88.053 -0.060318 0
88.0524 -0.0848954 0
88.0223 -0.0398783 0
88.0863 -0.108859 0
88.0316 -0.0319696 0
88.0701 -0.108603 0
88.1238 -0.121653 0
88.1289 -0.0859568 0
88.142 -0.104052 0
88.1105 -0.101567 0
88.135 -0.111687 0
88.0951 -0.0473671 0
88.1713 -0.127903 0
88.194 -0.140888 0
88.2108 -0.0921523 0
88.1436 -0.0685241 0
88.1863 -0.120686 0
88.2044 -0.141494 0
88.1589 -0.028749 0
88.2608 -0.15213 0
88.2731 -0.167871 0
88.2963 -0.103808 0
88.2222 -0.08918 0
88.2809 -0.141521 0
88.2997 -0.167766 0
88.235 -0.0307286 0
88.317 -0.193391 0
88.3581 -0.20691 0
88.3595 -0.145659 0
88.3621 -0.168939 0
88.3981 -0.15431 0
88.3911 -0.214331 0
88.3721 -0.0568616 0
88.3981 -0.202092 0
88.4579 -0.20662 0
88.4192 -0.0674149 0
88.5134 -0.244082 0
88.5329 -0.225635 0
88.5099 -0.14434 0
88.5551 -0.110351 0
88.5184 -0.250426 0
88.5511 -0.275116 0
88.5288 -0.0562908 0
88.6086 -0.279792 0
88.649 -0.286757 0
88.5761 -0.20595 0
88.6232 -0.13124 0
88.6549 -0.170233 0
88.6786 -0.32722 0
88.6903 -0.112179 0
88.7301 -0.306665 0
88.7553 -0.301162 0
88.7786 -0.351255 0
88.7144 -0.00593825 0
88.863 -0.350571 0
88.7593 -0.271321 0
88.858 -0.246198 0
88.9178 -0.287325 0
88.9074 -0.389262 0
88.9534 -0.393008 0
88.817 -0.0889676 0
88.9838 -0.382459 0
89.0099 -0.44005 0
89.0203 -0.423394 0
89.0774 -0.0986125 0
88.9998 -0.336589 0
89.1562 -0.488248 0
89.1876 -0.370113 0
89.1163 -0.312217 0
89.2051 -0.515347 0
89.1939 -0.509378 0
89.07 -0.0887175 0
89.282 -0.566102 0
89.314 -0.532656 0
89.4486 -0.104904 0
89.3992 -0.584258 0
89.2599 -0.409822 0
89.4761 -0.37467 0
89.5352 -0.482679 0
89.4444 -0.53033 0
89.4706 -0.634614 0
89.4997 -0.229276 0
89.621 -0.614337 0
89.5844 -0.705352 0
89.7518 -0.718236 0
89.6873 -0.0123341 0
89.7035 -0.590849 0
89.762 -0.742958 0
89.597 -0.183204 0
89.8192 -0.781553 0
89.8919 -0.452419 0
89.8623 -0.817049 0
90.0294 -0.254446 0
90.0095 -0.70731 0
89.9813 -0.831209 0
89.9027 -0.127563 0
90.1116 -0.858901 0
90.2728 -0.838947 0
90.1271 -0.712776 0
90.1614 -0.431647 0
90.3056 -0.963061 0
90.2943 -0.378998 0
90.4311 -0.0651588 0
90.2485 -0.759511 0
90.4105 -0.955312 0
90.494 -1.02528 0
90.4963 -0.323126 0
90.6226 -0.887417 0
90.7688 -0.973354 0
90.5579 -0.10857 0
90.9046 -0.948581 0
90.8276 -1.05745 0
90.6897 -0.782363 0
90.7308 -0.378176 0
90.8397 -0.442984 0
90.9702 -1.06522 0
90.8692 -0.00761612 0
91.0716 -1.13621 0
91.1982 -1.08041 0
91.1571 -1.13631 0
91.0992 -0.24831 0
91.2537 -0.927356 0
91.4912 -0.943633 0
91.0528 -0.00573163 0
91.581 -1.11946 0
91.7464 -0.953557 0
91.4055 -0.689432 0
91.2213 -0.284971 0
91.745 -1.07716 0
91.381 -0.354329 0
91.1586 -0.0169856 0
91.6679 -0.726014 0
91.9955 -0.982712 0
92.155 -0.918772 0
91.334 -0.0773286 0
92.0967 -0.628026 0
92.2381 -0.824204 0
91.178 0.0298754 0
92.3723 -0.813848 0
92.5533 -0.684184 0
92.1729 -0.243321 0
90.9082 0.00880378 0
92.703 -0.460509 0
91.8295 0.191492 0
92.057 0.296917 0
92.5737 -0.306206 0
92.3498 -0.0411654 0
93.021 -0.0709845 0
91.0214 0.369352 0
93.0075 -0.174913 0
92.549 0.404281 0
93.196 0.469762 0
90.9432 0.106667 0
93.1411 1.1773 0
92.9078 1.41081 0
89.5171 0.198016 0
93.3691 0.864317 0
93.2606 1.3487 0
90.8911 1.47345 0
90.6556 0.702233 0
92.1996 1.10382 0
93.1514 1.88584 0
89.7728 0.330333 0
92.6449 2.78064 0
93.3284 2.12188 0
93.3398 2.35065 0
88.9815 1.41493 0
91.6578 2.91459 0
92.6932 3.16925 0
88.9686 0.231852 0
92.5043 3.67321 0
92.1514 3.55732 0
91.1623 5.19012 0
86.6301 0.39738 0
92.3108 4.88371 0
90.3092 3.52404 0
88.4246 1.56646 0
88.0202 2.98878 0
92.0709 5.39241 0
90.921 5.84725 0
87.0753 0.609065 0
90.9923 6.67457 0
87.4549 0.000468941 0
87.4599 -0.00013127 0
87.4672 0.0046005 0
87.4678 0.00280706 0
87.4762 -0.000301582 0
87.484 0.00427419 0
87.4854 0.00643584 0
87.4879 0.00288923 0
87.4946 0.000113766 0
87.5003 0.00693309 0
87.5003 0.00483722 0
87.5076 0.000270002 0
87.5152 0.0074922 0
87.5157 0.00879998 0
87.5172 0.00502394 0
87.5237 0.000630902 0
87.5289 0.00912476 0
87.5287 0.00732403 0
87.5357 0.00122885 0
87.5438 0.011223 0
87.5441 0.0115407 0
87.5541 0.0153794 0
87.5458 0.00611774 0
87.56 0.00928832 0
87.5708 0.0149581 0
87.562 0.00979258 0
87.5743 0.0150617 0
87.5811 0.0119508 0
87.5872 0.0187877 0
87.578 0.00974019 0
87.5942 0.0130293 0
87.6016 0.0210674 0
87.5935 0.0101908 0
87.6145 0.0243215 0
87.6165 0.0231414 0
87.6209 0.0173051 0
87.6099 0.0122542 0
87.623 0.0183553 0
87.6365 0.0179835 0
87.6272 0.0116273 0
87.6493 0.0306741 0
87.6468 0.0120182 0
87.6568 0.0207457 0
87.6448 0.0156281 0
87.6596 0.0259424 0
87.6789 0.029967 0
87.683 0.0166178 0
87.6741 0.0272124 0
87.6931 0.0319795 0
87.6945 0.0357328 0
87.7121 0.0185792 0
87.7043 0.0232013 0
87.7177 0.0328067 0
87.7304 0.0455098 0
87.7326 0.0222972 0
87.7401 0.0363212 0
87.7481 0.0476692 0
87.7542 0.0272824 0
87.7396 0.0335052 0
87.7657 0.0522995 0
87.7664 0.0504643 0
87.7703 0.0321198 0
87.7793 0.0230863 0
87.7885 0.0466461 0
87.7412 0.014251 0
87.8039 0.0541897 0
87.8313 0.0646609 0
87.8152 0.0544086 0
87.8011 0.0324872 0
87.8404 0.0650248 0
87.8459 0.0578144 0
87.8535 0.0282012 0
87.8286 0.0530246 0
87.8629 0.060565 0
87.8767 0.0693659 0
87.8315 0.0165695 0
87.8643 0.0497866 0
87.9059 0.0803947 0
87.8708 0.0408665 0
87.9145 0.071424 0
87.938 0.084382 0
87.9138 0.0617879 0
87.9242 0.0256812 0
87.9443 0.0739913 0
87.9607 0.0862974 0
87.9339 0.0213403 0
87.9798 0.0944288 0
87.9469 0.0685185 0
87.9954 0.0788519 0
87.9595 0.0544626 0
88.0065 0.101368 0
88.0543 0.121714 0
88.0074 0.0315015 0
88.0133 0.0830089 0
88.0757 0.128734 0
88.0503 0.0921958 0
87.999 0.0388283 0
88.0875 0.120727 0
88.1037 0.126248 0
88.0564 0.0313048 0
88.0959 0.0567624 0
88.1269 0.110907 0
88.1457 0.146034 0
88.0776 0.0772733 0
88.1694 0.142035 0
88.1858 0.151373 0
88.1716 0.0524993 0
88.1609 0.0940068 0
88.2245 0.168395 0
88.2149 0.143016 0
88.1228 0.0465518 0
88.2369 0.16087 0
88.2771 0.172987 0
88.2413 0.0688827 0
88.2469 0.147104 0
88.3263 0.204969 0
88.3089 0.156833 0
88.1953 0.0499856 0
88.3449 0.192556 0
88.3999 0.232342 0
88.286 0.0671083 0
88.3827 0.185165 0
88.3529 0.0870131 0
88.4161 0.193226 0
88.3365 0.109164 0
88.4492 0.246229 0
88.494 0.246614 0
88.3958 0.0676025 0
88.4839 0.240014 0
88.5493 0.277162 0
88.4892 0.0717878 0
88.4552 0.201761 0
88.5338 0.236193 0
88.5878 0.28094 0
88.4684 0.0422333 0
88.5934 0.256117 0
88.6824 0.331516 0
88.6577 0.277901 0
88.5875 0.0847465 0
88.7193 0.289455 0
88.5504 0.107861 0
88.5932 0.244968 0
88.7154 0.321112 0
88.8091 0.364566 0
88.8152 0.372797 0
88.5624 0.00760437 0
88.9014 0.424036 0
88.9095 0.413499 0
88.9228 0.364666 0
88.8562 0.180412 0
88.9477 0.19726 0
88.9413 0.408596 0
88.7286 0.111502 0
89.0482 0.462164 0
89.037 0.452115 0
89.039 0.406491 0
88.9299 0.117783 0
89.1111 0.453902 0
89.2248 0.564484 0
89.0799 0.21172 0
89.036 0.225785 0
89.1796 0.456333 0
89.333 0.589087 0
88.9642 0.140195 0
89.3683 0.621699 0
89.4008 0.606537 0
89.2139 0.119594 0
89.5266 0.693229 0
89.5558 0.66657 0
89.6113 0.575221 0
89.4022 0.254179 0
89.3775 0.287887 0
89.5372 0.643944 0
89.2892 0.186179 0
89.6901 0.767424 0
89.7371 0.726379 0
89.7316 0.669638 0
89.4788 0.102377 0
89.8935 0.790527 0
89.9078 0.807882 0
89.7552 0.455511 0
89.9915 0.636903 0
89.7675 0.36963 0
89.9569 0.775615 0
89.6636 0.235331 0
90.1041 0.904362 0
90.1254 0.875847 0
89.6942 0.185683 0
90.1884 0.806587 0
90.3597 0.932009 0
90.2776 0.908487 0
90.1574 0.212604 0
90.5566 0.976772 0
90.5982 1.04124 0
90.1232 0.63047 0
90.4908 0.772755 0
90.175 0.384729 0
90.782 1.09751 0
90.3296 0.119248 0
90.8414 1.06793 0
90.8338 1.01302 0
90.1604 0.094592 0
90.7657 0.916533 0
91.1415 1.0862 0
91.2301 1.09642 0
90.7029 0.275267 0
91.2994 1.0712 0
91.3467 1.14145 0
90.6933 0.694146 0
91.3496 0.75562 0
90.8498 0.268016 0
91.5072 1.14107 0
90.8691 0.100093 0
91.6478 1.06697 0
91.734 1.05222 0
90.7095 0.0694909 0
91.5557 0.870232 0
92.0141 0.984343 0
92.1726 0.921657 0
91.1148 0.176743 0
92.0109 0.862784 0
92.3061 0.873793 0
91.6454 0.742998 0
92.0916 0.435953 0
91.1864 0.111598 0
92.0785 0.781547 0
91.1887 0.0410806 0
92.547 0.769042 0
92.631 0.622202 0
91.0964 0.038527 0
92.3334 0.308685 0
92.7762 0.340247 0
92.9612 0.205742 0
91.155 -0.0968096 0
93.0481 0.00345621 0
93.0921 -0.133638 0
91.2938 -0.264674 0
93.106 -0.163472 0
92.2997 -0.624241 0
91.5882 -0.0862917 0
91.4011 0.00492335 0
93.2377 -0.454888 0
92.9929 -0.855807 0
93.4226 -1.02964 0
91.0441 -0.00503984 0
92.6951 -1.30987 0
93.4163 -1.7681 0
90.9887 -0.122279 0
92.5291 -1.27846 0
93.387 -2.31067 0
91.9589 -1.75074 0
90.9508 -0.654799 0
93.1907 -2.66278 0
93.0488 -2.95815 0
91.9307 -1.10203 0
91.3433 -3.13433 0
89.2892 -2.59427 0
92.685 -2.99957 0
89.7295 -0.404418 0
92.6639 -3.95331 0
90.0537 7.27991 0
90.7954 6.50248 0
85.3331 1.92592 0
89.946 7.23809 0
87.6862 6.62901 0
89.2803 7.87368 0
85.9378 0.755558 0
88.2895 8.08007 0
87.1038 7.95569 0
84.6589 0.96277 0
87.1798 8.48229 0
92.57 -4.37537 0
89.979 -0.251378 0
92.2992 -4.72305 0
91.0465 -5.12894 0
90.4919 -4.41466 0
89.0633 -0.267682 0
91.288 -5.71882 0
85.8588 7.7528 0
90.6257 -7.00242 0
88.8015 -1.39757 0
90.2989 -6.76899 0
89.4246 -7.7383 0
83.4808 2.36864 0
88.9828 -7.59563 0
90.2215 -4.22845 0
89.4791 -6.8794 0
87.5993 -5.09407 0
86.6571 -0.83719 0
88.5308 -6.99015 0
87.7271 -7.40342 0
85.2295 8.18112 0
87.8012 -7.41425 0
87.5066 -0.453584 0
86.7574 -7.771 0
86.2406 -8.47829 0
85.9616 -0.563124 0
85.1382 -8.62549 0
85.6478 -6.32836 0
83.7446 -0.652355 0
84.1156 -8.77884 0
84.1721 -4.86931 0
85.9184 -3.83054 0
84.6598 -7.51474 0
83.537 -7.86881 0
86.2363 4.3924 0
82.5492 0.528945 0
85.6361 2.93786 0
84.2642 -0.0729466 0
82.9903 -8.53626 0
84.8474 7.74896 0
82.2701 0.384906 0
84.2632 6.59439 0
82.1155 -8.40099 0
83.8252 -1.7177 0
81.3826 -6.13367 0
84.2685 8.83368 0
81.1287 2.02822 0
84.1653 8.75906 0
81.9064 7.30767 0
81.4199 0.414062 0
82.5553 7.68181 0
82.0007 -6.38002 0
83.3239 -0.475248 0
81.2532 -8.52971 0
81.2686 -8.29714 0
82.9344 8.25051 0
80.9858 7.86734 0
80.708 0.0404671 0
82.0614 8.12111 0
80.1511 5.09008 0
80.7156 2.29185 0
80.3215 -8.4784 0
81.1959 -1.1011 0
80.6572 -8.3537 0
79.8573 8.32094 0
79.6858 -7.74668 0
80.3001 -1.07927 0
79.9358 -3.40375 0
78.4136 -7.44261 0
81.4421 -4.11393 0
78.2695 -7.19721 0
79.776 -0.289596 0
77.3487 -6.87706 0
79.4572 2.86857 0
80.0603 0.461546 0
79.4154 6.98622 0
79.4185 0.115573 0
79.2204 8.19779 0
78.9251 7.69476 0
79.0864 0.184653 0
78.1487 6.73423 0
78.8494 0.133358 0
78.7314 -6.43351 0
79.7749 -0.575724 0
79.9624 6.05512 0
77.956 0.739512 0
77.6985 6.32414 0
77.2299 -6.83817 0
79.889 -0.231471 0
75.59 -5.8461 0
77.9177 -0.441723 0
76.407 -5.75365 0
78.7039 2.5529 0
77.8607 0.120203 0
79.4447 -5.23702 0
77.8635 -0.113212 0
75.7055 -5.417 0
77.0956 5.70616 0
77.0924 -4.27647 0
77.8923 -0.245242 0
75.9975 -4.63896 0
78.0742 3.14704 0
75.9163 1.99879 0
76.5842 4.93228 0
77.7122 -0.987198 0
75.8503 -5.14245 0
77.8454 0.402799 0
76.5261 6.65661 0
77.8192 -2.38201 0
77.8618 -0.0847101 0
75.5113 -4.63742 0
76.2478 5.94795 0
77.8842 0.71811 0
76.1778 4.64808 0
75.906 4.58855 0
77.8406 0.380542 0
75.1021 4.08462 0
74.6595 -4.16741 0
77.8644 -0.296341 0
74.3571 -4.15917 0
76.6845 -1.9835 0
77.8697 -0.202364 0
73.7262 -2.83435 0
75.1721 5.08291 0
77.8149 0.623005 0
76.3813 3.25555 0
74.3291 -2.57503 0
77.791 -0.31146 0
73.6868 -2.34556 0
74.0512 3.74017 0
77.8025 0.266891 0
74.4467 3.52305 0
74.7398 2.87465 0
77.8615 0.0357371 0
73.9127 3.06175 0
75.0083 -1.51529 0
77.7538 -0.542997 0
74.3077 -1.33492 0
73.1437 -0.850833 0
77.1405 -0.927153 0
73.193 -0.720422 0
76.8563 0.960946 0
77.8182 0.0765775 0
75.9936 2.44103 0
73.6908 2.46581 0
77.7087 0.0596327 0
73.2669 1.55746 0
77.4586 -0.236688 0
77.8516 -0.111672 0
73.191 -0.237056 0
73.7101 -0.0930699 0
77.836 -0.0661989 0
75.8919 0.308625 0
73.8755 0.528209 0
77.8426 -0.0623863 0
77.3058 -5.66813 0
77.9544 -0.43352 0
77.8546 0.132058 0
78.1673 6.89686 0
79.124 -7.75238 0
82.1759 -0.947276 0
80.5382 0.997861 0
81.8276 8.62854 0
77.8202 0.279773 0
74.6204 4.86357 0
74.0845 -2.84308 0
77.8205 -0.200284 0
77.9098 -0.572818 0
77.6615 -3.67738 0
77.988 0.802293 0
77.9194 0.201463 0
77.8313 -0.000833119 0
73.7581 2.05685 0
79.3783 0.466994 0
78.454 1.57875 0
78.7859 -1.37458 0
80.3462 -0.692285 0
86.0511 -1.26765 0
85.6201 -8.46938 0
87.5346 8.07822 0
85.5763 0.468283 0
77.8123 1.66695 0
79.7716 8.0149 0
78.6781 -7.09656 0
79.3428 -2.31817 0
76.9644 -1.46101 0
74.6965 -0.223572 0
76.2811 5.84198 0
78.1365 1.89571 0
77.9719 -1.79156 0
74.8859 -4.64271 0
92.0417 -5.36532 0
88.7384 -0.659515 0
88.3042 0.788522 0
92.4957 4.45742 0
77.9834 -0.815751 0
77.892 -0.0455207 0
77.8853 0.14822 0
79.0129 0.758904 0
83.2655 0.734833 0
82.8948 4.10931 0
81.3203 -1.99194 0
84.4862 -1.74667 0
81.798 4.90491 0
84.7845 8.31395 0
83.6022 -8.69624 0
82.6942 -1.92134 0
86.8364 1.6101 0
87.9292 5.02434 0
86.4734 -2.78986 0
87.6539 -0.041202 0
90.9293 -0.247414 0
93.3808 -1.27969 0
93.2285 0.48006 0
90.0954 0.0274371 0
91.1534 0.00418846 0
92.6719 0.604778 0
92.4527 -0.585422 0
91.2812 0.0317763 0
79.0871 -1.45003 0
78.5008 -0.574795 0
78.4235 1.23882 0
79.2571 0.953305 0
78.2549 1.22868 0
77.8914 0.242357 0
77.8604 -0.106227 0
78.1729 -1.12973 0
89.7676 0.949293 0
91.0142 1.86999 0
90.0972 -1.139 0
90.3211 -0.168892 0
76.0219 -0.960292 0
77.8555 -0.155931 0
77.4969 -0.439633 0
77.8757 -0.376683 0
77.8585 0.204372 0
77.9069 0.96779 0
91.8032 0.999396 0
90.9968 0.157152 0
91.1148 -0.00567949 0
91.5463 -1.07364 0
81.7928 -0.0394153 0
81.0184 -2.83087 0
82.1048 1.80761 0
80.7699 0.448503 0
77.9149 4.05484 0
77.4524 7.33256 0
77.1857 -6.27516 0
78.369 -3.23538 0
78.8536 -2.11597 0
77.5901 -2.23323 0
78.0159 4.64746 0
78.2792 2.22846 0
91.2835 0.0433355 0
90.9984 0.14042 0
91.1958 -0.04666 0
92.1754 0.116673 0
79.8753 -5.43393 0
80.97 -5.26953 0
80.5428 4.64899 0
81.1178 8.54903 0
79.1862 -3.98824 0
80.3597 -2.31741 0
80.1962 3.12273 0
79.3258 1.54024 0
91.0797 1.15071 0
90.5403 0.143307 0
90.7547 -0.0122316 0
90.6846 -1.03037 0
77.346 1.01715 0
77.8487 0.0287677 0
91.179 -0.059829 0
91.8199 -0.367031 0
91.5361 0.256065 0
91.0289 0.0392069 0
78.8798 -0.958514 0
78.3948 -1.33513 0
79.2039 1.7466 0
78.2611 0.735849 0
77.8977 -0.147236 0
78.1727 -0.700698 0
77.9797 0.315513 0
77.8718 0.136309 0
74.1873 1.71575 0
77.003 1.5265 0
87.2413 -3.15227 0
90.618 -6.34719 0
91.5915 5.79178 0
86.9507 2.27358 0
76.8655 -2.31868 0
74.8209 -2.90511 0
89.9245 0.155401 0
90.1833 0.873749 0
89.2876 0.0737409 0
89.863 0.826366 0
90.2017 -0.850939 0
90.0417 -0.140955 0
89.6477 -0.690217 0
89.559 -0.014582 0
90.9108 -0.217126 0
91.0333 -0.624192 0
90.8827 0.392844 0
90.6513 0.00841285 0
77.8616 0.178792 0
77.7019 0.540687 0
76.5001 0.452052 0
74.2783 0.846879 0
77.8046 -0.25123 0
77.8446 -0.169319 0
77.407 0.274325 0
77.3432 -0.752979 0
93.1902 -2.71445 0
90.014 -1.74326 0
91.0032 2.20997 0
93.3616 1.57721 0
78.0429 -0.0629956 0
78.1516 -0.364874 0
77.8989 0.0538112 0
78.3374 0.261539 0
90.366 -0.205669 0
90.3918 -0.530799 0
90.4087 0.355456 0
90.047 0.114797 0
89.1285 0.163898 0
89.3013 0.514637 0
89.329 -0.600491 0
89.212 -0.1455 0
78.5163 -0.89997 0
79.465 -2.13936 0
78.8922 1.61491 0
78.5007 1.27396 0
79.2386 2.88551 0
77.6312 1.85406 0
78.1721 -1.92562 0
78.8574 -2.79845 0
91.6187 -0.524641 0
92.5905 0.32445 0
92.7605 -0.320065 0
92.0408 0.558699 0
77.7234 -1.15167 0
77.8453 -1.36796 0
77.863 1.08522 0
77.3798 1.30971 0
89.1554 0.531847 0
88.8827 0.158723 0
88.9372 -0.100111 0
89.1037 -0.454219 0
85.317 4.27076 0
87.3449 7.13224 0
86.8344 -8.40291 0
86.3787 -3.34571 0
75.3009 -3.42964 0
77.6213 -3.51873 0
84.9355 -3.06494 0
85.5909 -1.09862 0
83.9188 0.454732 0
87.2902 3.10656 0
74.9028 4.63165 0
76.7813 2.73636 0
89.7749 -0.0516481 0
89.9467 -0.538862 0
89.8303 0.354802 0
89.7445 0.0956834 0
89.189 -0.369217 0
88.9556 -1.5119 0
89.5143 2.08322 0
88.5265 0.271762 0
83.276 1.39849 0
81.5026 0.351011 0
82.6441 -0.337818 0
83.3197 -3.1134 0
91.5003 0.329176 0
91.7864 0.868884 0
91.9414 -0.945417 0
91.8101 -0.0673396 0
82.2978 -3.83482 0
83.4059 -1.83844 0
82.6124 2.71422 0
85.2017 5.99158 0
88.7917 0.323593 0
88.6693 0.061356 0
88.826 -0.0975233 0
88.7884 -0.336287 0
89.3088 -0.181261 0
89.4533 -0.00954959 0
89.4293 0.101226 0
89.2849 0.424853 0
80.005 0.49867 0
79.7585 1.30615 0
80.0244 -1.14786 0
80.8843 -0.320203 0
81.5724 2.83049 0
79.9262 1.95151 0
79.308 -2.83826 0
78.4625 -2.86675 0
90.963 -0.476684 0
90.7075 -0.276237 0
90.5204 0.372664 0
91.475 0.615946 0
79.9319 3.85089 0
80.437 2.5748 0
79.3656 -0.825809 0
79.189 -0.294318 0
79.0229 0.266195 0
79.7647 0.889321 0
76.6226 -0.875871 0
77.5779 -1.35011 0
92.544 -3.62729 0
90.06 -2.0609 0
89.4986 3.74517 0
92.9366 3.68762 0
77.9228 -0.865784 0
77.8885 -0.143766 0
77.8306 0.19807 0
77.9956 0.848252 0
78.2641 0.0872303 0
78.291 0.626865 0
78.4466 -0.343205 0
78.5992 -0.0198691 0
75.5006 -0.269277 0
73.2066 0.151722 0
85.3247 3.22476 0
89.4601 2.97049 0
88.1354 -2.51353 0
88.7338 -4.97109 0
77.6422 2.06986 0
77.1947 1.15589 0
77.8599 -0.0254744 0
77.686 -0.0511021 0
80.5156 6.84365 0
78.3807 4.06355 0
80.1378 -4.30317 0
79.1782 -8.11691 0
77.4154 0.785098 0
77.792 0.424317 0
90.9181 0.522473 0
91.257 1.1367 0
90.9712 -1.03327 0
90.8925 -0.204453 0
88.9492 -0.117663 0
89.1354 -0.0799996 0
89.1108 0.0686291 0
89.0297 0.39325 0
93.1304 0.401332 0
91.9606 1.36367 0
92.0357 -0.538098 0
93.2581 -0.657281 0
77.5118 0.106915 0