# vtk DataFile Version 3.0
Unstructured Grid for Triangles
ASCII
DATASET UNSTRUCTURED_GRID
POINTS 29612 DOUBLE
-2.72397e-05 1.23686e-06 0
-2.95789e-05 9.5838e-07 0
-2.77865e-05 -3.1235e-07 0
0.0002024 5e-05 0
0.000203975 4.9875e-05 0
0.000205 5e-05 0
0.000203975 -4.9875e-05 0
0.0002024 -5e-05 0
0.000205 -5e-05 0
0.00020295 4.975e-05 0
0.00020295 -4.975e-05 0
0.000201925 4.9625e-05 0
0.000201925 -4.9625e-05 0
-5.29747e-05 -4.79887e-05 0
-5.5e-05 -5e-05 0
-5.24e-05 -5e-05 0
-5.05983e-05 -4.84325e-05 0
-4.98e-05 -5e-05 0
-4.72e-05 -5e-05 0
-4.83864e-05 -4.87761e-05 0
-4.46e-05 -5e-05 0
-4.59e-05 -4.84239e-05 0
-4.29453e-05 -4.24878e-05 0
-4.47486e-05 -4.20717e-05 0
-4.41829e-05 -4.36609e-05 0
-5.12578e-05 -4.62101e-05 0
-4.93077e-05 -4.53594e-05 0
-5.0706e-05 -4.39006e-05 0
-4.19243e-05 -4.77545e-05 0
-4.40307e-05 -4.71837e-05 0
-4.3691e-05 -4.86724e-05 0
-5.16129e-05 -4.20948e-05 0
-4.95355e-05 -4.15432e-05 0
-5.11646e-05 -4.0128e-05 0
-3.94697e-05 -4.81197e-05 0
-4.06302e-05 -4.55143e-05 0
-5.37257e-05 -3.88197e-05 0
-5.31099e-05 -4.07297e-05 0
-5.23982e-05 -3.88328e-05 0
-3.70063e-05 -4.72956e-05 0
-3.68e-05 -5e-05 0
-3.5308e-05 -4.85302e-05 0
-5.072e-05 -3.7867e-05 0
-4.85506e-05 -3.83975e-05 0
-4.90949e-05 -3.59622e-05 0
-3.37127e-05 -4.84331e-05 0
-3.16e-05 -5e-05 0
-3.26495e-05 -4.7415e-05 0
-5.5e-05 -3.5e-05 0
-5.31201e-05 -3.70361e-05 0
-5.28367e-05 -3.46817e-05 0
-3.63898e-05 -4.48809e-05 0
-3.83315e-05 -4.60336e-05 0
-3.26269e-06 -4.15503e-05 0
-5.99662e-06 -4.09556e-05 0
-5.46944e-06 -4.29488e-05 0
-5.29747e-05 4.79887e-05 0
-5.5e-05 5e-05 0
-5.5e-05 4.75e-05 0
-5.5e-05 4.5e-05 0
-5.34834e-05 4.29171e-05 0
-5.26943e-05 4.42611e-05 0
-5.34026e-05 4.60176e-05 0
-5.31099e-05 4.07297e-05 0
-5.11672e-05 4.01178e-05 0
-5.16129e-05 4.20948e-05 0
-5.24e-05 5e-05 0
-5.05983e-05 4.84325e-05 0
-5.31201e-05 3.70361e-05 0
-5.072e-05 3.7867e-05 0
-5.23982e-05 3.88328e-05 0
-4.8341e-05 4.69132e-05 0
-4.83679e-05 4.87539e-05 0
-5.28367e-05 3.46817e-05 0
-5.5e-05 3.25e-05 0
-5.25657e-05 3.28474e-05 0
-4.98e-05 5e-05 0
-5.30382e-05 3.125e-05 0
-4.19243e-05 4.77545e-05 0
-4.40015e-05 4.7335e-05 0
-4.25917e-05 4.63678e-05 0
-4.35138e-05 2.62661e-05 0
-4.14982e-05 2.74462e-05 0
-4.35654e-05 2.85217e-05 0
-4.59e-05 4.84239e-05 0
-4.36852e-05 4.87027e-05 0
-4.46e-05 5e-05 0
-5.33308e-05 2.92503e-05 0
-5.5e-05 2.75e-05 0
-5.23377e-05 2.76953e-05 0
-4.25282e-05 4.46352e-05 0
-4.09368e-05 4.35728e-05 0
-4.06302e-05 4.55143e-05 0
0.0002009 4.95e-05 0
0.0001998 5e-05 0
0.000199875 4.9375e-05 0
0.00019885 4.925e-05 0
0.0001972 5e-05 0
0.000197825 4.9125e-05 0
0.0001968 4.9e-05 0
0.000195775 4.8875e-05 0
0.0001946 5e-05 0
0.00019475 4.875e-05 0
0.000193725 4.8625e-05 0
0.000192 5e-05 0
0.0001927 4.85e-05 0
0.000191675 4.8375e-05 0
0.00019065 4.825e-05 0
0.0001894 5e-05 0
0.000189625 4.8125e-05 0
0.0001886 4.8e-05 0
0.0001868 5e-05 0
0.000187575 4.7875e-05 0
0.00018655 4.775e-05 0
0.000185515 4.8575e-05 0
0.0001842 5e-05 0
0.0001845 4.75e-05 0
0.000185525 4.7625e-05 0
0.000182564 4.829e-05 0
0.0001816 5e-05 0
0.00018245 4.725e-05 0
0.000183475 4.7375e-05 0
0.000181425 4.7125e-05 0
0.000180295 4.82657e-05 0
0.000179 5e-05 0
0.000179375 4.6875e-05 0
0.0001804 4.7e-05 0
0.000178168 4.80619e-05 0
0.0001764 5e-05 0
0.000177325 4.6625e-05 0
0.00017835 4.675e-05 0
0.000176428 4.76631e-05 0
0.0001763 4.65e-05 0
0.0001738 5e-05 0
0.0001751 4.84164e-05 0
0.000175275 4.6375e-05 0
0.000174025 4.75632e-05 0
0.0001712 5e-05 0
0.000172615 4.78449e-05 0
0.0001722 4.6e-05 0
0.000173225 4.6125e-05 0
0.00017015 4.575e-05 0
0.000171243 4.7381e-05 0
0.000169554 4.79999e-05 0
0.0001686 5e-05 0
0.000167507 4.79751e-05 0
0.000168498 4.64861e-05 0
0.000166 5e-05 0
0.00016558 4.71459e-05 0
0.000167135 4.62887e-05 0
0.0001681 4.55e-05 0
0.00016605 4.525e-05 0
0.000167075 4.5375e-05 0
0.000164059 4.61599e-05 0
0.00016394 4.79552e-05 0
0.000162881 4.6615e-05 0
0.000162975 4.4875e-05 0
0.000165025 4.5125e-05 0
0.000164 4.5e-05 0
0.000161754 4.58641e-05 0
0.000161722 4.78101e-05 0
0.000159956 4.58294e-05 0
0.000160925 4.4625e-05 0
0.00016195 4.475e-05 0
0.000157667 4.60322e-05 0
0.000158875 4.4375e-05 0
0.000159194 4.80155e-05 0
0.0001599 4.45e-05 0
0.00015785 4.425e-05 0
0.000155808 4.56757e-05 0
0.000155647 4.76701e-05 0
0.000154059 4.66642e-05 0
0.000153756 4.50083e-05 0
0.000154839 4.50446e-05 0
0.000156825 4.4125e-05 0
0.000151954 4.80508e-05 0
0.000154052 4.8477e-05 0
0.000153 5e-05 0
0.000154775 4.3875e-05 0
0.000152142 4.56625e-05 0
0.000152821 4.45753e-05 0
0.00015375 4.375e-05 0
0.0001504 5e-05 0
0.000149644 4.85168e-05 0
0.000151787 4.43178e-05 0
0.000152725 4.3625e-05 0
0.000150675 4.3375e-05 0
0.0001517 4.35e-05 0
0.000148119 4.50887e-05 0
0.000148072 4.75757e-05 0
0.000146584 4.63516e-05 0
0.000150008 4.6396e-05 0
0.000149351 4.4543e-05 0
0.00015061 4.46252e-05 0
0.0001476 4.3e-05 0
0.000148625 4.3125e-05 0
0.000146492 4.82975e-05 0
0.000144888 4.73562e-05 0
0.000146676 4.44259e-05 0
0.000145255 4.53656e-05 0
0.000145652 4.38669e-05 0
0.000141401 4.79821e-05 0
0.0001426 5e-05 0
0.00014 5e-05 0
0.000144374 4.38862e-05 0
0.00014555 4.275e-05 0
0.0001435 4.25e-05 0
0.000144525 4.2625e-05 0
0.000142746 4.38121e-05 0
0.000141288 4.43191e-05 0
0.000141707 4.32778e-05 0
0.00013921 4.38992e-05 0
0.000140355 4.5932e-05 0
0.000138302 4.5922e-05 0
0.000142912 4.58869e-05 0
0.000140592 4.30037e-05 0
0.00014145 4.225e-05 0
0.000136458 4.5869e-05 0
0.000137106 4.4063e-05 0
0.0001394 4.2e-05 0
0.000138259 4.28915e-05 0
0.000137484 4.77094e-05 0
0.000139166 4.78902e-05 0
0.00013586 4.78984e-05 0
0.000133449 4.78649e-05 0
0.000134717 4.61848e-05 0
0.000137256 4.25134e-05 0
0.000135323 4.24541e-05 0
0.000136325 4.1625e-05 0
0.000136122 4.2876e-05 0
0.000131206 4.47284e-05 0
0.000133168 4.56738e-05 0
0.000131773 4.65243e-05 0
0.000134756 4.40343e-05 0
0.000132747 4.36463e-05 0
0.000133483 4.26786e-05 0
0.000131081 4.1867e-05 0
0.000132382 4.22815e-05 0
0.000131507 4.3122e-05 0
0.000131059 4.80123e-05 0
0.00013325 4.125e-05 0
0.00012915 4.075e-05 0
0.00012982 4.18199e-05 0
0.000128915 4.26216e-05 0
0.000126366 4.47574e-05 0
0.000127331 4.30908e-05 0
0.000128781 4.44872e-05 0
0.000125336 4.28376e-05 0
0.000130218 4.31077e-05 0
0.000127894 4.16344e-05 0
0.000124774 4.69608e-05 0
0.000127668 4.64148e-05 0
0.000126591 4.8331e-05 0
0.000126722 4.18415e-05 0
0.000125768 4.11931e-05 0
0.000124326 4.13546e-05 0
0.00012505 4.025e-05 0
0.000122408 4.50118e-05 0
0.000120276 4.47432e-05 0
0.00012139 4.32235e-05 0
0.000124336 4.44132e-05 0
0.000123056 4.27595e-05 0
0.000122977 4.09049e-05 0
0.00012185 4.69217e-05 0
0.000122676 4.85947e-05 0
0.000120525 4.86094e-05 0
0.000121479 4.13153e-05 0
0.000119547 4.24221e-05 0
0.000120249 4.07448e-05 0
0.000119925 3.9625e-05 0
0.000119346 4.06114e-05 0
0.000117479 4.47279e-05 0
0.000114726 4.45259e-05 0
0.00011571 4.27814e-05 0
0.000119443 4.66611e-05 0
0.000117447 4.21596e-05 0
0.000118421 4.0752e-05 0
0.000117409 4.04437e-05 0
0.000116775 4.70073e-05 0
0.0001179 4.855e-05 0
0.000115473 4.84802e-05 0
0.00011685 3.925e-05 0
0.000117875 3.9375e-05 0
0.000115454 4.00551e-05 0
0.0001148 3.9e-05 0
0.000115825 3.9125e-05 0
0.000111704 4.23398e-05 0
0.000113786 4.26731e-05 0
0.000112589 4.43871e-05 0
0.000113234 4.06671e-05 0
0.000114754 4.13371e-05 0
0.0001106 4.42326e-05 0
0.000109703 4.24261e-05 0
0.00011275 3.875e-05 0
0.000113775 3.8875e-05 0
0.000110211 4.80875e-05 0
0.000108244 4.71951e-05 0
0.000109312 4.58413e-05 0
0.000111755 3.99116e-05 0
0.00010944 3.92972e-05 0
0.000110415 4.05876e-05 0
0.000108839 4.07536e-05 0
0.000106472 4.76905e-05 0
0.000107274 4.57868e-05 0
0.000108011 3.92415e-05 0
0.000106885 4.04365e-05 0
0.000106625 3.88708e-05 0
0.000105286 4.19254e-05 0
0.000105055 3.95469e-05 0
0.000104215 4.39764e-05 0
0.000106346 4.40629e-05 0
0.000100945 4.51249e-05 0
0.000102825 4.5614e-05 0
0.000101189 4.68452e-05 0
0.000107625 3.8125e-05 0
0.000105575 3.7875e-05 0
0.0001066 3.8e-05 0
0.000103352 4.76905e-05 0
0.000101803 4.8465e-05 0
0.000103685 3.89398e-05 0
0.00010245 3.8825e-05 0
0.000103525 3.7625e-05 0
0.000101092 3.99779e-05 0
0.000101267 3.82619e-05 0
0.000101382 4.2025e-05 0
0.000103187 4.05286e-05 0
0.000103359 4.24605e-05 0
9.87383e-05 4.5447e-05 0
9.99411e-05 4.35161e-05 0
9.744e-05 4.33145e-05 0
0.00010045 3.725e-05 0
0.000101475 3.7375e-05 0
9.70845e-05 4.65215e-05 0
9.52614e-05 4.67664e-05 0
9.61768e-05 4.49944e-05 0
9.9729e-05 3.87704e-05 0
9.78901e-05 3.9598e-05 0
9.85823e-05 3.81492e-05 0
9.62289e-05 3.93709e-05 0
9.74259e-05 3.81279e-05 0
9.7375e-05 3.6875e-05 0
9.63045e-05 3.76631e-05 0
9.58e-05 5e-05 0
9.32e-05 5e-05 0
9.47542e-05 4.8457e-05 0
9.49675e-05 3.85246e-05 0
9.36214e-05 3.89472e-05 0
9.40006e-05 3.74906e-05 0
9.66411e-05 4.12573e-05 0
9.44241e-05 4.07079e-05 0
9.03569e-05 4.24993e-05 0
9.21701e-05 4.02409e-05 0
9.27439e-05 4.27744e-05 0
8.89795e-05 4.09067e-05 0
9.03071e-05 4.0248e-05 0
9.25447e-05 3.77721e-05 0
9.3275e-05 3.6375e-05 0
9.07708e-05 3.87127e-05 0
9.11303e-05 3.70839e-05 0
9.11933e-05 4.55145e-05 0
9.30678e-05 4.73279e-05 0
9.11886e-05 4.82603e-05 0
8.87724e-05 3.88076e-05 0
8.99595e-05 3.75116e-05 0
9.02e-05 3.6e-05 0
8.89241e-05 3.6954e-05 0
8.36977e-05 4.59472e-05 0
8.36223e-05 4.83578e-05 0
8.20467e-05 4.74142e-05 0
8.71227e-05 4.03557e-05 0
8.61e-05 3.55e-05 0
8.68368e-05 3.65714e-05 0
8.5484e-05 3.6588e-05 0
8.47735e-05 4.02845e-05 0
8.23121e-05 4.21599e-05 0
8.26582e-05 3.98147e-05 0
8.46943e-05 4.2454e-05 0
8.38832e-05 3.78613e-05 0
8.35569e-05 3.63808e-05 0
8.44098e-05 3.6291e-05 0
8.5075e-05 3.5375e-05 0
8.51465e-05 4.77163e-05 0
8.3025e-05 3.5125e-05 0
8.22824e-05 3.68659e-05 0
8.1446e-05 3.57362e-05 0
8.05884e-05 3.71794e-05 0
7.53471e-05 4.77524e-05 0
7.38313e-05 4.73927e-05 0
7.39102e-05 4.61526e-05 0
7.9826e-05 3.58588e-05 0
7.88607e-05 3.76287e-05 0
7.81733e-05 3.57987e-05 0
8.16783e-05 3.84471e-05 0
8.07975e-05 4.04095e-05 0
7.52138e-05 4.04775e-05 0
7.67682e-05 4.17043e-05 0
7.49617e-05 4.21803e-05 0
7.52903e-05 3.84008e-05 0
7.38293e-05 3.93136e-05 0
[...]
CELL_DATA 58684
VECTORS velocity DOUBLE
74.0314 0.337179 0
84.8807 -0.000235987 0
84.8557 0.000261123 0
84.8837 -0.00042824 0
84.8572 0.000221624 0
84.89 -0.00191991 0
84.8635 0.00199315 0
77.8631 -0.00273936 0
77.87 -0.0235821 0
77.9493 -0.00394104 0
78.0436 -0.00682845 0
78.0936 -0.40796 0
77.8913 -0.109886 0
78.1672 -0.134449 0
77.8743 -0.185807 0
78.3447 -0.172019 0
77.8632 -0.111862 0
78.6722 -0.157033 0
77.9108 -0.317809 0
79.1497 -0.113874 0
77.8774 -0.114027 0
78.6461 -0.367939 0
84.9409 -2.16873 0
77.8558 0.0117193 0
77.8528 0.0513213 0
77.8557 0.024995 0
77.8763 0.141027 0
77.8697 0.0225877 0
77.8753 0.188866 0
77.9482 0.0493777 0
77.8736 0.144939 0
77.9116 0.0322722 0
77.8349 0.145034 0
78.2306 0.163568 0
77.9486 1.13084 0
78.1022 0.0678435 0
77.8862 0.176883 0
78.2988 0.354711 0
84.8939 -0.00132385 0
84.8972 -0.000509589 0
84.9063 -0.00370416 0
84.9097 -0.003951 0
84.9141 -0.00105286 0
84.9215 -0.00412128 0
84.9248 -0.00600085 0
84.9276 -0.00381996 0
84.9321 -0.000792458 0
84.9391 -0.00650371 0
84.9414 -0.0057105 0
84.9452 -0.00125857 0
84.9535 -0.00722576 0
84.9555 -0.00812885 0
84.9578 -0.00542204 0
84.9621 -0.00109233 0
84.9686 -0.00835339 0
84.9704 -0.00704929 0
84.9742 -0.00161495 0
84.9833 -0.0103067 0
84.9851 -0.0105757 0
84.987 -0.00650703 0
84.9932 -0.000777291 0
84.9971 -0.0121733 0
85.0033 -0.00882276 0
85.0128 -0.000580582 0
85.0151 -0.0146263 0
85.0176 -0.0134209 0
85.0227 -0.0101772 0
85.029 -0.0008057 0
85.0327 -0.0154012 0
85.0377 -0.0106592 0
85.0452 -0.00125188 0
85.049 -0.0175156 0
85.0536 -0.0128462 0
85.0617 -0.0204548 0
85.0673 -0.000725735 0
85.0718 -0.0155684 0
85.0773 -0.0100457 0
85.0882 -0.00134582 0
85.0922 -0.0215498 0
85.113 -0.0169713 0
85.0955 -0.0174242 0
85.1142 -0.000891372 0
85.1236 -0.0119413 0
85.1172 -0.0224762 0
85.148 -0.0143606 0
85.1409 -0.0187297 0
85.138 -0.0254155 0
85.1506 -0.0313398 0
85.1753 -0.0201099 0
85.19 -0.0278081 0
85.1648 -0.0239345 0
85.1821 -0.0349718 0
85.2029 -0.0273958 0
85.199 -0.0270944 0
85.2075 -0.0373698 0
85.2425 -0.0343064 0
85.2249 -0.0308962 0
85.2326 -0.0401669 0
85.2538 -0.0465771 0
85.2623 -0.0353274 0
85.2925 -0.0435386 0
85.2644 -0.0368513 0
85.2974 -0.013684 0
85.2959 -0.047286 0
85.3197 -0.0445618 0
85.3097 -0.0490088 0
85.327 -0.014377 0
85.3265 -0.052251 0
85.3452 -0.0582717 0
85.3739 -0.03312 0
85.3679 -0.0355277 0
85.3494 -0.0488337 0
85.3884 -0.0632798 0
85.3929 -0.0264144 0
85.4257 -0.0575495 0
85.4121 -0.0373488 0
85.4608 -0.00151741 0
85.4357 -0.0647476 0
85.4541 -0.0752305 0
85.4949 -0.0658518 0
85.5233 -0.0501999 0
85.4701 -0.0408336 0
85.5053 -0.0757869 0
85.5566 -0.0509745 0
85.5446 -0.0799292 0
85.523 -0.0282758 0
85.5602 -0.0715964 0
85.5896 -0.0254683 0
85.577 -0.0846759 0
85.6107 -0.0982822 0
85.6627 -0.0587088 0
85.6475 -0.0803759 0
85.6233 -0.0368525 0
85.6956 -0.10647 0
85.6395 -0.0290697 0
85.6679 -0.105403 0
85.7506 -0.117967 0
85.7741 -0.082395 0
85.7957 -0.104189 0
85.7405 -0.0996333 0
85.7731 -0.1078 0
85.7465 -0.0492263 0
85.8271 -0.12539 0
85.8572 -0.137057 0
85.9099 -0.0909618 0
85.8162 -0.0661239 0
85.8556 -0.117606 0
85.8814 -0.14107 0
85.8511 -0.0271355 0
85.9679 -0.149918 0
85.9823 -0.166755 0
86.0472 -0.101898 0
85.9401 -0.0925918 0
86.0045 -0.139118 0
86.0299 -0.168204 0
85.9749 -0.0285344 0
86.0503 -0.194626 0
86.1123 -0.209188 0
86.1432 -0.149706 0
86.1307 -0.171285 0
86.2035 -0.159144 0
86.1659 -0.217047 0
86.192 -0.0565951 0
86.1801 -0.203195 0
86.2728 -0.208568 0
86.261 -0.0685571 0
86.3554 -0.250394 0
86.3926 -0.231742 0
86.3764 -0.145061 0
86.4666 -0.113737 0
86.3579 -0.254607 0
86.4032 -0.28219 0
86.4336 -0.0579167 0
86.4971 -0.28599 0
86.5601 -0.296469 0
86.4696 -0.212643 0
86.5588 -0.132232 0
86.6063 -0.17951 0
86.5941 -0.339216 0
86.6718 -0.116017 0
86.6793 -0.316347 0
86.7213 -0.311558 0
86.7482 -0.365337 0
86.7185 -0.00287641 0
86.8735 -0.365921 0
86.7406 -0.28143 0
86.8971 -0.255094 0
86.9828 -0.299599 0
86.9296 -0.405069 0
87.0032 -0.410847 0
86.8617 -0.0917408 0
87.0522 -0.398558 0
87.0817 -0.461805 0
87.1001 -0.44491 0
87.2475 -0.10344 0
87.09 -0.353899 0
87.2842 -0.511708 0
87.3619 -0.39059 0
87.2706 -0.328063 0
87.3616 -0.543871 0
87.3391 -0.534963 0
87.2291 -0.0916768 0
87.4687 -0.598142 0
87.514 -0.559753 0
87.7605 -0.104918 0
87.6365 -0.617497 0
87.4551 -0.428505 0
87.7684 -0.392206 0
87.8405 -0.507356 0
87.7059 -0.560476 0
87.7304 -0.666927 0
87.828 -0.240633 0
87.9408 -0.640349 0
87.8829 -0.742886 0
88.1112 -0.750234 0
88.0916 -0.00880589 0
88.0632 -0.620839 0
88.1286 -0.777191 0
87.9636 -0.193004 0
88.2036 -0.818671 0
88.3243 -0.466763 0
88.2556 -0.856912 0
88.5263 -0.258941 0
88.4633 -0.729569 0
88.4203 -0.86359 0
88.373 -0.134104 0
88.5844 -0.88929 0
88.8003 -0.862071 0
88.6248 -0.74056 0
88.6845 -0.441368 0
88.8371 -0.993696 0
88.8676 -0.38546 0
89.0619 -0.0662759 0
88.7804 -0.777255 0
88.9753 -0.978119 0
89.0731 -1.05406 0
89.1291 -0.324637 0
89.2452 -0.901037 0
89.4237 -0.982917 0
89.2281 -0.112192 0
89.5935 -0.95008 0
89.493 -1.06806 0
89.3405 -0.792723 0
89.4256 -0.379571 0
89.5517 -0.441133 0
89.6721 -1.06678 0
89.6396 -0.00432602 0
89.7917 -1.13801 0
89.9453 -1.07173 0
89.8952 -1.13261 0
89.9088 -0.241485 0
90.0226 -0.916839 0
90.3021 -0.917621 0
89.8971 -0.00244777 0
90.3965 -1.09486 0
90.5978 -0.919964 0
90.2141 -0.670603 0
90.0497 -0.274407 0
90.5893 -1.04265 0
90.2228 -0.337227 0
90.0752 -0.0135779 0
90.5269 -0.692224 0
90.8778 -0.934414 0
91.0571 -0.865289 0
90.253 -0.0616474 0
91.0192 -0.577998 0
91.1552 -0.765297 0
90.1434 0.0383578 0
91.3061 -0.747009 0
91.5074 -0.610107 0
91.128 -0.190705 0
89.9353 0.0121078 0
91.6785 -0.377613 0
90.827 0.232815 0
91.0687 0.347674 0
91.5542 -0.230168 0
91.3351 0.0247465 0
92.0314 0.0191817 0
90.0733 0.39016 0
92.0128 -0.0837029 0
91.5782 0.478516 0
92.2359 0.568303 0
89.9818 0.115074 0
92.2072 1.26939 0
91.9855 1.49679 0
88.6808 0.200123 0
92.4288 0.96668 0
92.34 1.44037 0
90.0189 1.50979 0
89.7549 0.723285 0
91.2742 1.16543 0
92.2477 1.97202 0
88.9281 0.334791 0
91.7704 2.85751 0
92.4275 2.21975 0
92.443 2.44612 0
88.1993 1.42811 0
90.8101 2.9734 0
91.8336 3.24552 0
88.1762 0.237058 0
91.652 3.74543 0
91.3098 3.6142 0
90.3691 5.23151 0
85.9553 0.397642 0
91.4873 4.94146 0
89.5163 3.56285 0
87.6719 1.57604 0
87.3048 2.99864 0
91.2599 5.44456 0
90.1459 5.88131 0
86.3888 0.612067 0
90.2148 6.70666 0
84.8672 0.00135188 0
84.8704 0.000491503 0
84.8784 0.00319477 0
84.8815 0.00347335 0
84.8853 0.00102761 0
84.8923 0.00386594 0
84.8953 0.00535576 0
84.8981 0.00367112 0
84.9023 0.000803325 0
84.9089 0.00586668 0
84.9111 0.00515886 0
84.9143 0.00122602 0
84.9221 0.00669144 0
84.9241 0.00761183 0
84.9263 0.00507323 0
84.9304 0.00107141 0
84.9366 0.00812742 0
84.9386 0.00684929 0
84.9424 0.00158639 0
84.9512 0.0100845 0
84.9531 0.0102912 0
84.9629 0.0125337 0
84.9549 0.00630601 0
84.9693 0.00808312 0
84.9789 0.0128665 0
84.9709 0.00888669 0
84.9855 0.0134593 0
84.9905 0.0102046 0
84.9981 0.0161626 0
84.988 0.0087135 0
85.0053 0.0107867 0
85.0142 0.0182741 0
85.0059 0.00898507 0
85.0296 0.0210476 0
85.032 0.0193849 0
85.0377 0.0145679 0
85.0243 0.0110178 0
85.04 0.0158783 0
85.056 0.0146627 0
85.0455 0.0102678 0
85.0721 0.0264451 0
85.071 0.0108246 0
85.082 0.0172135 0
85.0678 0.0139076 0
85.0863 0.0227832 0
85.1078 0.0257942 0
85.1172 0.0147129 0
85.1051 0.0242737 0
85.1267 0.0279558 0
85.1303 0.0313569 0
85.1543 0.0152646 0
85.1452 0.0204103 0
85.16 0.0281828 0
85.1753 0.0403765 0
85.1843 0.0190123 0
85.1887 0.0311162 0
85.1998 0.04281 0
85.2169 0.0254353 0
85.1946 0.0310978 0
85.2252 0.0476621 0
85.2279 0.0459305 0
85.2394 0.0291365 0
85.2528 0.0206934 0
85.2638 0.0435974 0
85.1996 0.0141356 0
85.2814 0.0497144 0
85.3174 0.0597416 0
85.2993 0.0507527 0
85.2834 0.0298818 0
85.3323 0.0607 0
85.3409 0.0527796 0
85.3674 0.0267668 0
85.3229 0.0500519 0
85.3696 0.0562159 0
85.3893 0.0652604 0
85.3337 0.0157262 0
85.378 0.046953 0
85.4296 0.0757899 0
85.3892 0.0384631 0
85.4431 0.0654707 0
85.4802 0.0802895 0
85.4534 0.0593007 0
85.4796 0.0237237 0
85.4933 0.0706029 0
85.5133 0.0815622 0
85.4992 0.0212005 0
85.543 0.0904249 0
85.5062 0.066389 0
85.572 0.0737668 0
85.5269 0.050967 0
85.5845 0.0988575 0
85.6565 0.119055 0
85.6165 0.029054 0
85.6105 0.0820153 0
85.6879 0.126404 0
85.6646 0.0898419 0
85.6008 0.036185 0
85.7081 0.117264 0
85.7371 0.123669 0
85.6989 0.0304346 0
85.7502 0.0537066 0
85.7792 0.107365 0
85.7969 0.144523 0
85.7203 0.0772895 0
85.8347 0.138449 0
85.8617 0.149964 0
85.877 0.0492622 0
85.8422 0.0909527 0
85.9214 0.168082 0
85.9184 0.143488 0
85.8073 0.0484059 0
85.9474 0.160968 0
86.0068 0.171327 0
85.9879 0.0672873 0
85.9672 0.148182 0
86.0757 0.205909 0
86.064 0.158017 0
85.922 0.0511823 0
86.1055 0.191124 0
86.1898 0.235609 0
86.0627 0.0673671 0
86.1786 0.18668 0
86.1619 0.0861007 0
86.2312 0.197654 0
86.1339 0.11238 0
86.2628 0.249354 0
86.3343 0.249421 0
86.2378 0.0690124 0
86.3245 0.245292 0
86.4175 0.283559 0
86.3874 0.0714639 0
86.2906 0.207488 0
86.4136 0.243557 0
86.4776 0.28702 0
86.3537 0.045076 0
86.4955 0.262131 0
86.6152 0.342781 0
86.5985 0.28805 0
86.5369 0.086218 0
86.6886 0.302819 0
86.4753 0.110765 0
86.5002 0.253886 0
86.6719 0.333982 0
86.8015 0.378709 0
86.8161 0.389373 0
86.5011 0.00485691 0
86.9321 0.444941 0
86.9484 0.432184 0
86.9881 0.384628 0
86.9226 0.187545 0
87.0501 0.202461 0
87 0.429388 0
86.7405 0.116077 0
87.1453 0.482725 0
87.1382 0.476745 0
87.1531 0.42935 0
87.0403 0.125104 0
87.2485 0.475803 0
87.3925 0.597116 0
87.2472 0.223826 0
87.1759 0.235144 0
87.3555 0.484353 0
87.5435 0.619084 0
87.0805 0.14533 0
87.59 0.656755 0
87.6403 0.636869 0
87.4466 0.123976 0
87.8082 0.731722 0
87.8492 0.69984 0
87.9435 0.603515 0
87.6962 0.263708 0
87.6531 0.298194 0
87.8369 0.676934 0
87.5378 0.192138 0
88.031 0.808786 0
88.097 0.759907 0
88.1063 0.701444 0
87.8102 0.105519 0
88.3053 0.824426 0
88.3294 0.842628 0
88.1522 0.47106 0
88.4493 0.661974 0
88.1785 0.381804 0
88.3976 0.806763 0
88.0455 0.241884 0
88.5817 0.93753 0
88.6145 0.903345 0
88.1011 0.195638 0
88.7025 0.832491 0
88.9152 0.955049 0
88.8122 0.936093 0
88.6996 0.217246 0
89.1575 0.994388 0
89.209 1.06417 0
88.6326 0.645948 0
89.0979 0.787034 0
88.7113 0.392614 0
89.4349 1.11524 0
88.9321 0.121507 0
89.5106 1.07904 0
89.5088 1.01826 0
88.7198 0.0966944 0
89.4389 0.923539 0
89.8762 1.08248 0
89.9813 1.08915 0
89.3994 0.275982 0
90.0681 1.05777 0
90.1222 1.12896 0
89.3563 0.694264 0
90.145 0.735193 0
89.5885 0.264454 0
90.3086 1.12054 0
89.6277 0.0964006 0
90.4741 1.03812 0
90.5746 1.01851 0
89.4257 0.0714262 0
90.3896 0.842188 0
90.8971 0.935459 0
91.0746 0.867402 0
89.9345 0.165848 0
90.9013 0.810988 0
91.2295 0.811114 0
90.4932 0.711985 0
91.0257 0.386533 0
90.046 0.0994085 0
90.9844 0.72656 0
90.0832 0.0348231 0
91.4959 0.69635 0
91.5918 0.545846 0
89.9544 0.0376578 0
91.2989 0.242524 0
91.7608 0.254782 0
91.9613 0.116271 0
90.1503 -0.105662 0
92.0611 -0.0923375 0
92.1134 -0.227986 0
90.3178 -0.291463 0
92.1317 -0.261482 0
91.3429 -0.689903 0
90.556 -0.117893 0
90.3483 -0.0161233 0
92.2794 -0.557021 0
92.0477 -0.945902 0
92.4848 -1.13216 0
90.0424 -0.00880663 0
91.7766 -1.38948 0
92.5018 -1.86805 0
90.0274 -0.13202 0
91.605 -1.35279 0
92.4878 -2.40726 0
91.0719 -1.8131 0
90.0296 -0.677619 0
92.3035 -2.7529 0
92.1705 -3.04358 0
91.0034 -1.15749 0
90.5069 -3.18719 0
88.5145 -2.61353 0
91.8182 -3.07246 0
88.8861 -0.414711 0
91.8144 -4.02509 0
89.3073 7.29862 0
90.0245 6.53263 0
84.7287 1.928 0
89.2078 7.25318 0
87.0058 6.63028 0
88.5559 7.88046 0
85.3029 0.759535 0
87.5925 8.07817 0
86.441 7.94554 0
84.0876 0.962355 0
86.5097 8.47179 0
91.7313 -4.44067 0
89.1163 -0.256354 0
91.4728 -4.78244 0
90.2559 -5.16871 0
89.702 -4.45192 0
88.2674 -0.272541 0
90.496 -5.76015 0
85.2372 7.73413 0
89.8585 -7.02833 0
88.0358 -1.41017 0
89.5418 -6.79261 0
88.6915 -7.75051 0
82.9602 2.36171 0
88.2624 -7.60384 0
89.4437 -4.2615 0
88.749 -6.89455 0
86.9168 -5.10001 0
85.9831 -0.840333 0
87.8254 -6.99562 0
87.0483 -7.40014 0
84.619 8.16045 0
87.1163 -7.41341 0
86.7968 -0.45731 0
86.1051 -7.75878 0
85.596 -8.4618 0
85.3225 -0.565469 0
84.5241 -8.60075 0
85.0311 -6.31711 0
83.2121 -0.654964 0
83.5247 -8.75033 0
83.6182 -4.85307 0
85.2909 -3.82929 0
84.0711 -7.49387 0
82.979 -7.83977 0
85.6007 4.39341 0
82.0816 0.530118 0
85.02 2.93737 0
83.7095 -0.0761701 0
82.4335 -8.50256 0
84.2514 7.72913 0
81.8168 0.383908 0
83.6974 6.57315 0
81.5823 -8.36535 0
83.2898 -1.71236 0
80.9081 -6.10584 0
83.6739 8.80627 0
80.7323 2.0195 0
83.5759 8.73093 0
81.4119 7.27593 0
81.0161 0.410927 0
82.022 7.65379 0
81.5015 -6.35557 0
82.8177 -0.471759 0
80.7416 -8.4922 0
80.7632 -8.25877 0
82.3864 8.21971 0
80.4996 7.83254 0
80.3478 0.0422828 0
81.5389 8.08831 0
79.7459 5.06452 0
80.3393 2.28073 0
79.8318 -8.43897 0
80.801 -1.09348 0
80.1629 -8.31393 0
79.3755 8.28196 0
79.2223 -7.70965 0
79.9585 -1.0749 0
79.5756 -3.38968 0
77.9788 -7.40366 0
81.0016 -4.09692 0
77.8423 -7.16122 0
79.4776 -0.290609 0
76.9368 -6.84056 0
79.1353 2.85772 0
79.7386 0.460502 0
78.9668 6.95497 0
79.1563 0.117822 0
78.7504 8.15913 0
78.4764 7.65559 0
78.8519 0.185978 0
77.7357 6.70001 0
78.6449 0.133792 0
78.3227 -6.40083 0
79.4749 -0.574931 0
79.5393 6.02779 0
77.8644 0.734238 0
77.2957 6.29093 0
76.8262 -6.80066 0
79.5867 -0.228845 0
75.2138 -5.8157 0
77.8605 -0.441128 0
76.037 -5.72358 0
78.4308 2.54361 0
77.8527 0.12097 0
79.0501 -5.20898 0
77.854 -0.112985 0
75.3454 -5.388 0
76.7158 5.6759 0
76.7629 -4.25217 0
77.8633 -0.241329 0
75.6605 -4.61577 0
77.7841 3.13447 0
75.6488 1.98795 0
76.2298 4.90794 0
77.5837 -0.982997 0
75.4969 -5.11401 0
77.7981 0.402681 0
76.1274 6.6226 0
77.5794 -2.37211 0
77.8551 -0.0840574 0
75.1736 -4.61397 0
75.8661 5.91599 0
77.8015 0.71652 0
75.8421 4.62417 0
75.5597 4.56344 0
77.7908 0.3819 0
74.7706 4.06463 0
74.3174 -4.14263 0
77.8273 -0.294441 0
74.0173 -4.13564 0
76.4374 -1.97001 0
77.8454 -0.199985 0
73.4001 -2.8189 0
74.8208 5.05635 0
77.7215 0.619101 0
76.0949 3.23999 0
74.0161 -2.5597 0
77.728 -0.312472 0
73.3646 -2.33195 0
73.7147 3.72043 0
77.7367 0.264109 0
74.12 3.50434 0
74.4256 2.85886 0
77.8524 0.0342061 0
73.586 3.04515 0
74.7263 -1.50756 0
77.6605 -0.539142 0
74.0095 -1.32896 0
72.8242 -0.845586 0
76.9593 -0.921426 0
72.8749 -0.715863 0
76.6547 0.957741 0
77.7764 0.0793777 0
75.7121 2.42474 0
73.3679 2.45253 0
77.6277 0.0589653 0
72.9458 1.54959 0
77.3271 -0.234757 0
77.8347 -0.112725 0
72.8737 -0.235228 0
73.4033 -0.0921971 0
77.798 -0.0659122 0
75.6473 0.306598 0
73.5708 0.525029 0
77.8152 -0.0618628 0
76.9402 -5.6381 0
77.8889 -0.432176 0
77.8377 0.133744 0
77.7439 6.86067 0
78.6678 -7.71453 0
81.7258 -0.942348 0
80.182 0.994494 0
81.2999 8.59211 0
77.7789 0.280031 0
74.2698 4.83798 0
73.7651 -2.8271 0
77.798 -0.202869 0
77.835 -0.573739 0
77.3522 -3.65734 0
77.8851 0.80103 0
77.8963 0.198166 0
77.7871 -0.000278263 0
73.4419 2.04733 0
79.1138 0.465175 0
78.247 1.57221 0
78.5596 -1.37181 0
80.0035 -0.688988 0
85.4098 -1.27218 0
84.9944 -8.44786 0
86.8584 8.07071 0
84.9571 0.469197 0
77.6221 1.66031 0
79.2954 7.97625 0
78.2513 -7.05808 0
79.0442 -2.30984 0
76.761 -1.45706 0
74.4124 -0.218895 0
75.9057 5.81037 0
77.9335 1.88575 0
77.777 -1.78688 0
74.5428 -4.61888 0
91.2293 -5.41722 0
87.9634 -0.665081 0
87.555 0.795726 0
91.6563 4.52556 0
77.8798 -0.814589 0
77.8686 -0.0436214 0
77.8529 0.148781 0
78.7837 0.754711 0
82.7594 0.737041 0
82.3902 4.0989 0
80.9097 -1.98597 0
83.9191 -1.74384 0
81.3269 4.8863 0
84.1833 8.29137 0
83.0284 -8.66548 0
82.2117 -1.91732 0
86.1588 1.61247 0
87.2329 5.03251 0
85.8179 -2.79253 0
86.9301 -0.0444455 0
89.9835 -0.261323 0
92.4531 -1.37893 0
92.2711 0.58105 0
89.2197 0.0313442 0
90.0585 0.000147716 0
91.6376 0.525134 0
91.4097 -0.51628 0
90.2437 0.048929 0
78.837 -1.44429 0
78.3291 -0.573034 0
78.2347 1.23513 0
79.0022 0.946841 0
78.0885 1.22315 0
77.8625 0.238916 0
77.8512 -0.107689 0
78.0251 -1.12406 0
88.9389 0.964651 0
90.1581 1.91068 0
89.2512 -1.16124 0
89.4292 -0.174555 0
75.7834 -0.957872 0
77.8157 -0.15524 0
77.3738 -0.439656 0
77.826 -0.372801 0
77.8329 0.206293 0
77.7839 0.967069 0
90.6593 0.960123 0
89.782 0.150505 0
89.9896 -0.00134414 0
90.3547 -1.04998 0
81.3653 -0.0410996 0
80.6194 -2.819 0
81.6516 1.80156 0
80.4013 0.447993 0
77.5963 4.03193 0
77.0296 7.29591 0
76.7996 -6.24088 0
78.083 -3.21694 0
78.5983 -2.1057 0
77.3613 -2.22616 0
77.6715 4.62604 0
78.0417 2.2212 0
90.2572 0.0608029 0
90.0218 0.148166 0
90.175 -0.0557419 0
91.1411 0.0575042 0
79.4548 -5.40977 0
80.5213 -5.24905 0
80.1294 4.63044 0
80.6068 8.51132 0
78.8341 -3.97015 0
79.998 -2.31038 0
79.8271 3.11203 0
79.0533 1.53276 0
89.7976 1.15655 0
89.202 0.139512 0
89.4881 -0.00832632 0
89.3208 -1.04379 0
77.1773 1.01084 0
77.8283 0.0307009 0
90.0614 -0.051341 0
90.7265 -0.327049 0
90.4266 0.229952 0
89.8583 0.0360447 0
78.6595 -0.954224 0
78.2095 -1.32904 0
78.938 1.73766 0
78.1183 0.73598 0
77.8744 -0.146552 0
78.0546 -0.696696 0
77.9111 0.315385 0
77.8507 0.13649 0
73.884 1.70859 0
76.7911 1.52094 0
86.5639 -3.15697 0
89.8507 -6.3747 0
90.7945 5.83708 0
86.2774 2.28051 0
76.6114 -2.30402 0
74.5133 -2.89029 0
88.3966 0.15947 0
88.6924 0.900611 0
87.5527 0.0767279 0
88.2651 0.865089 0
88.7048 -0.879553 0
88.5525 -0.141341 0
87.9745 -0.721629 0
87.9183 -0.0117384 0
89.6733 -0.212137 0
89.7712 -0.615972 0
89.6166 0.387941 0
89.3517 0.00534112 0
77.8326 0.180055 0
77.6012 0.537002 0
76.2899 0.452322 0
73.9817 0.843338 0
77.74 -0.24779 0
77.8201 -0.17051 0
77.2702 0.275382 0
77.1827 -0.746581 0
92.3037 -2.80769 0
89.1896 -1.76948 0
90.1619 2.25238 0
92.4453 1.67823 0
77.9602 -0.0643512 0
78.0401 -0.366605 0
77.8698 0.0509644 0
78.1973 0.260408 0
88.9679 -0.206058 0
88.9732 -0.539003 0
89.0182 0.359425 0
88.5617 0.115598 0
87.3136 0.169001 0
87.5197 0.544091 0
87.5268 -0.635249 0
87.4289 -0.154127 0
78.3346 -0.897726 0
79.1716 -2.12715 0
78.6455 1.60878 0
78.3052 1.27083 0
78.9273 2.87333 0
77.4227 1.84623 0
77.9655 -1.91869 0
78.5708 -2.78445 0
90.6491 -0.562627 0
91.5715 0.246983 0
91.7451 -0.236212 0
91.0717 0.610671 0
77.5751 -1.1445 0
77.682 -1.36135 0
77.7257 1.07941 0
77.1958 1.30147 0
87.2931 0.561979 0
86.9599 0.167214 0
87.0373 -0.103811 0
87.2173 -0.477192 0
84.7207 4.26485 0
86.68 7.1289 0
86.1732 -8.3901 0
85.7379 -3.34796 0
74.9863 -3.41162 0
77.324 -3.50386 0
84.3528 -3.05954 0
84.9745 -1.09668 0
83.3806 0.452422 0
86.6027 3.11476 0
74.5604 4.6087 0
76.5201 2.72393 0
88.2131 -0.0511967 0
88.3911 -0.555233 0
88.2675 0.370579 0
88.1684 0.103142 0
88.3799 -0.372096 0
88.1766 -1.52526 0
88.7223 2.10442 0
87.7579 0.274185 0
82.7698 1.39353 0
81.0874 0.349468 0
82.1709 -0.333799 0
82.7999 -3.10637 0
90.3781 0.303765 0
90.6518 0.827225 0
90.8176 -0.902754 0
90.7581 -0.0271953 0
81.8203 -3.82449 0
82.8908 -1.83562 0
82.1308 2.70526 0
84.6048 5.98066 0
86.7926 0.336949 0
86.6586 0.0635487 0
86.8837 -0.102273 0
86.7644 -0.350626 0
87.5607 -0.19071 0
87.7749 -0.00685624 0
87.7396 0.103846 0
87.5062 0.44506 0
79.6923 0.495031 0
79.4589 1.29925 0
79.7043 -1.1454 0
80.5128 -0.315847 0
81.1437 2.81892 0
79.6011 1.94479 0
78.9888 -2.82753 0
78.1926 -2.8521 0
90.0263 -0.497124 0
89.7809 -0.285677 0
89.6152 0.384492 0
90.5237 0.652814 0
79.5591 3.83635 0
80.0713 2.56103 0
79.0992 -0.82237 0
78.9432 -0.291747 0
78.7965 0.264573 0
79.4628 0.887325 0
76.4089 -0.871069 0
77.4063 -1.34341 0
91.6885 -3.70048 0
89.2487 -2.08966 0
88.7385 3.77314 0
92.0744 3.76806 0
77.8171 -0.865032 0
77.872 -0.14106 0
77.8063 0.200392 0
77.8906 0.84289 0
78.1362 0.087704 0
78.1507 0.623373 0
78.2899 -0.344427 0
78.4236 -0.0204744 0
75.2387 -0.266883 0
72.89 0.151048 0
84.7208 3.21967 0
88.6872 2.99262 0
87.4077 -2.52155 0
88.0077 -4.98567 0
77.4255 2.05968 0
77.0056 1.14619 0
77.8535 -0.0247774 0
77.599 -0.0487573 0
80.053 6.81406 0
78.053 4.04348 0
79.7431 -4.28717 0
78.7159 -8.07722 0
77.2724 0.784419 0
77.7272 0.424502 0
89.6508 0.516338 0
90.0145 1.12905 0
89.6727 -1.03904 0
89.6432 -0.198531 0
87.0603 -0.125069 0
87.3316 -0.0841179 0
87.2972 0.0717715 0
87.1351 0.413931 0
92.1674 0.493532 0
91.0565 1.42113 0
91.0715 -0.593488 0
92.3076 -0.755808 0