# vtk DataFile Version 3.0
Unstructured Grid for Triangles
ASCII
DATASET UNSTRUCTURED_GRID
POINTS 29612 DOUBLE
-2.72397e-05 1.23686e-06 0
-2.95789e-05 9.5838e-07 0
-2.77865e-05 -3.1235e-07 0
0.0002024 5e-05 0
0.000203975 4.9875e-05 0
0.000205 5e-05 0
0.000203975 -4.9875e-05 0
0.0002024 -5e-05 0
0.000205 -5e-05 0
0.00020295 4.975e-05 0
0.00020295 -4.975e-05 0
0.000201925 4.9625e-05 0
0.000201925 -4.9625e-05 0
-5.29747e-05 -4.79887e-05 0
-5.5e-05 -5e-05 0
-5.24e-05 -5e-05 0
-5.05983e-05 -4.84325e-05 0
-4.98e-05 -5e-05 0
-4.72e-05 -5e-05 0
-4.83864e-05 -4.87761e-05 0
-4.46e-05 -5e-05 0
-4.59e-05 -4.84239e-05 0
-4.29453e-05 -4.24878e-05 0
-4.47486e-05 -4.20717e-05 0
-4.41829e-05 -4.36609e-05 0
-5.12578e-05 -4.62101e-05 0
-4.93077e-05 -4.53594e-05 0
-5.0706e-05 -4.39006e-05 0
-4.19243e-05 -4.77545e-05 0
-4.40307e-05 -4.71837e-05 0
-4.3691e-05 -4.86724e-05 0
-5.16129e-05 -4.20948e-05 0
-4.95355e-05 -4.15432e-05 0
-5.11646e-05 -4.0128e-05 0
-3.94697e-05 -4.81197e-05 0
-4.06302e-05 -4.55143e-05 0
-5.37257e-05 -3.88197e-05 0
-5.31099e-05 -4.07297e-05 0
-5.23982e-05 -3.88328e-05 0
-3.70063e-05 -4.72956e-05 0
-3.68e-05 -5e-05 0
-3.5308e-05 -4.85302e-05 0
-5.072e-05 -3.7867e-05 0
-4.85506e-05 -3.83975e-05 0
-4.90949e-05 -3.59622e-05 0
-3.37127e-05 -4.84331e-05 0
-3.16e-05 -5e-05 0
-3.26495e-05 -4.7415e-05 0
-5.5e-05 -3.5e-05 0
-5.31201e-05 -3.70361e-05 0
-5.28367e-05 -3.46817e-05 0
-3.63898e-05 -4.48809e-05 0
-3.83315e-05 -4.60336e-05 0
-3.26269e-06 -4.15503e-05 0
-5.99662e-06 -4.09556e-05 0
-5.46944e-06 -4.29488e-05 0
-5.29747e-05 4.79887e-05 0
-5.5e-05 5e-05 0
-5.5e-05 4.75e-05 0
-5.5e-05 4.5e-05 0
-5.34834e-05 4.29171e-05 0
-5.26943e-05 4.42611e-05 0
-5.34026e-05 4.60176e-05 0
-5.31099e-05 4.07297e-05 0
-5.11672e-05 4.01178e-05 0
-5.16129e-05 4.20948e-05 0
-5.24e-05 5e-05 0
-5.05983e-05 4.84325e-05 0
-5.31201e-05 3.70361e-05 0
-5.072e-05 3.7867e-05 0
-5.23982e-05 3.88328e-05 0
-4.8341e-05 4.69132e-05 0
-4.83679e-05 4.87539e-05 0
-5.28367e-05 3.46817e-05 0
-5.5e-05 3.25e-05 0
-5.25657e-05 3.28474e-05 0
-4.98e-05 5e-05 0
-5.30382e-05 3.125e-05 0
-4.19243e-05 4.77545e-05 0
-4.40015e-05 4.7335e-05 0
-4.25917e-05 4.63678e-05 0
-4.35138e-05 2.62661e-05 0
-4.14982e-05 2.74462e-05 0
-4.35654e-05 2.85217e-05 0
-4.59e-05 4.84239e-05 0
-4.36852e-05 4.87027e-05 0
-4.46e-05 5e-05 0
-5.33308e-05 2.92503e-05 0
-5.5e-05 2.75e-05 0
-5.23377e-05 2.76953e-05 0
-4.25282e-05 4.46352e-05 0
-4.09368e-05 4.35728e-05 0
-4.06302e-05 4.55143e-05 0
0.0002009 4.95e-05 0
0.0001998 5e-05 0
0.000199875 4.9375e-05 0
0.00019885 4.925e-05 0
0.0001972 5e-05 0
0.000197825 4.9125e-05 0
0.0001968 4.9e-05 0
0.000195775 4.8875e-05 0
0.0001946 5e-05 0
0.00019475 4.875e-05 0
0.000193725 4.8625e-05 0
0.000192 5e-05 0
0.0001927 4.85e-05 0
0.000191675 4.8375e-05 0
0.00019065 4.825e-05 0
0.0001894 5e-05 0
0.000189625 4.8125e-05 0
0.0001886 4.8e-05 0
0.0001868 5e-05 0
0.000187575 4.7875e-05 0
0.00018655 4.775e-05 0
0.000185515 4.8575e-05 0
0.0001842 5e-05 0
0.0001845 4.75e-05 0
0.000185525 4.7625e-05 0
0.000182564 4.829e-05 0
0.0001816 5e-05 0
0.00018245 4.725e-05 0
0.000183475 4.7375e-05 0
0.000181425 4.7125e-05 0
0.000180295 4.82657e-05 0
0.000179 5e-05 0
0.000179375 4.6875e-05 0
0.0001804 4.7e-05 0
0.000178168 4.80619e-05 0
0.0001764 5e-05 0
0.000177325 4.6625e-05 0
0.00017835 4.675e-05 0
0.000176428 4.76631e-05 0
0.0001763 4.65e-05 0
0.0001738 5e-05 0
0.0001751 4.84164e-05 0
0.000175275 4.6375e-05 0
0.000174025 4.75632e-05 0
0.0001712 5e-05 0
0.000172615 4.78449e-05 0
0.0001722 4.6e-05 0
0.000173225 4.6125e-05 0
0.00017015 4.575e-05 0
0.000171243 4.7381e-05 0
0.000169554 4.79999e-05 0
0.0001686 5e-05 0
0.000167507 4.79751e-05 0
0.000168498 4.64861e-05 0
0.000166 5e-05 0
0.00016558 4.71459e-05 0
0.000167135 4.62887e-05 0
0.0001681 4.55e-05 0
0.00016605 4.525e-05 0
0.000167075 4.5375e-05 0
0.000164059 4.61599e-05 0
0.00016394 4.79552e-05 0
0.000162881 4.6615e-05 0
0.000162975 4.4875e-05 0
0.000165025 4.5125e-05 0
0.000164 4.5e-05 0
0.000161754 4.58641e-05 0
0.000161722 4.78101e-05 0
0.000159956 4.58294e-05 0
0.000160925 4.4625e-05 0
0.00016195 4.475e-05 0
0.000157667 4.60322e-05 0
0.000158875 4.4375e-05 0
0.000159194 4.80155e-05 0
0.0001599 4.45e-05 0
0.00015785 4.425e-05 0
0.000155808 4.56757e-05 0
0.000155647 4.76701e-05 0
0.000154059 4.66642e-05 0
0.000153756 4.50083e-05 0
0.000154839 4.50446e-05 0
0.000156825 4.4125e-05 0
0.000151954 4.80508e-05 0
0.000154052 4.8477e-05 0
0.000153 5e-05 0
0.000154775 4.3875e-05 0
0.000152142 4.56625e-05 0
0.000152821 4.45753e-05 0
0.00015375 4.375e-05 0
0.0001504 5e-05 0
0.000149644 4.85168e-05 0
0.000151787 4.43178e-05 0
0.000152725 4.3625e-05 0
0.000150675 4.3375e-05 0
0.0001517 4.35e-05 0
0.000148119 4.50887e-05 0
0.000148072 4.75757e-05 0
0.000146584 4.63516e-05 0
0.000150008 4.6396e-05 0
0.000149351 4.4543e-05 0
0.00015061 4.46252e-05 0
0.0001476 4.3e-05 0
0.000148625 4.3125e-05 0
0.000146492 4.82975e-05 0
0.000144888 4.73562e-05 0
0.000146676 4.44259e-05 0
0.000145255 4.53656e-05 0
0.000145652 4.38669e-05 0
0.000141401 4.79821e-05 0
0.0001426 5e-05 0
0.00014 5e-05 0
0.000144374 4.38862e-05 0
0.00014555 4.275e-05 0
0.0001435 4.25e-05 0
0.000144525 4.2625e-05 0
0.000142746 4.38121e-05 0
0.000141288 4.43191e-05 0
0.000141707 4.32778e-05 0
0.00013921 4.38992e-05 0
0.000140355 4.5932e-05 0
0.000138302 4.5922e-05 0
0.000142912 4.58869e-05 0
0.000140592 4.30037e-05 0
0.00014145 4.225e-05 0
0.000136458 4.5869e-05 0
0.000137106 4.4063e-05 0
0.0001394 4.2e-05 0
0.000138259 4.28915e-05 0
0.000137484 4.77094e-05 0
0.000139166 4.78902e-05 0
0.00013586 4.78984e-05 0
0.000133449 4.78649e-05 0
0.000134717 4.61848e-05 0
0.000137256 4.25134e-05 0
0.000135323 4.24541e-05 0
0.000136325 4.1625e-05 0
0.000136122 4.2876e-05 0
0.000131206 4.47284e-05 0
0.000133168 4.56738e-05 0
0.000131773 4.65243e-05 0
0.000134756 4.40343e-05 0
0.000132747 4.36463e-05 0
0.000133483 4.26786e-05 0
0.000131081 4.1867e-05 0
0.000132382 4.22815e-05 0
0.000131507 4.3122e-05 0
0.000131059 4.80123e-05 0
0.00013325 4.125e-05 0
0.00012915 4.075e-05 0
0.00012982 4.18199e-05 0
0.000128915 4.26216e-05 0
0.000126366 4.47574e-05 0
0.000127331 4.30908e-05 0
0.000128781 4.44872e-05 0
0.000125336 4.28376e-05 0
0.000130218 4.31077e-05 0
0.000127894 4.16344e-05 0
0.000124774 4.69608e-05 0
0.000127668 4.64148e-05 0
0.000126591 4.8331e-05 0
0.000126722 4.18415e-05 0
0.000125768 4.11931e-05 0
0.000124326 4.13546e-05 0
0.00012505 4.025e-05 0
0.000122408 4.50118e-05 0
0.000120276 4.47432e-05 0
0.00012139 4.32235e-05 0
0.000124336 4.44132e-05 0
0.000123056 4.27595e-05 0
0.000122977 4.09049e-05 0
0.00012185 4.69217e-05 0
0.000122676 4.85947e-05 0
0.000120525 4.86094e-05 0
0.000121479 4.13153e-05 0
0.000119547 4.24221e-05 0
0.000120249 4.07448e-05 0
0.000119925 3.9625e-05 0
0.000119346 4.06114e-05 0
0.000117479 4.47279e-05 0
0.000114726 4.45259e-05 0
0.00011571 4.27814e-05 0
0.000119443 4.66611e-05 0
0.000117447 4.21596e-05 0
0.000118421 4.0752e-05 0
0.000117409 4.04437e-05 0
0.000116775 4.70073e-05 0
0.0001179 4.855e-05 0
0.000115473 4.84802e-05 0
0.00011685 3.925e-05 0
0.000117875 3.9375e-05 0
0.000115454 4.00551e-05 0
0.0001148 3.9e-05 0
0.000115825 3.9125e-05 0
0.000111704 4.23398e-05 0
0.000113786 4.26731e-05 0
0.000112589 4.43871e-05 0
0.000113234 4.06671e-05 0
0.000114754 4.13371e-05 0
0.0001106 4.42326e-05 0
0.000109703 4.24261e-05 0
0.00011275 3.875e-05 0
0.000113775 3.8875e-05 0
0.000110211 4.80875e-05 0
0.000108244 4.71951e-05 0
0.000109312 4.58413e-05 0
0.000111755 3.99116e-05 0
0.00010944 3.92972e-05 0
0.000110415 4.05876e-05 0
0.000108839 4.07536e-05 0
0.000106472 4.76905e-05 0
0.000107274 4.57868e-05 0
0.000108011 3.92415e-05 0
0.000106885 4.04365e-05 0
0.000106625 3.88708e-05 0
0.000105286 4.19254e-05 0
0.000105055 3.95469e-05 0
0.000104215 4.39764e-05 0
0.000106346 4.40629e-05 0
0.000100945 4.51249e-05 0
0.000102825 4.5614e-05 0
0.000101189 4.68452e-05 0
0.000107625 3.8125e-05 0
0.000105575 3.7875e-05 0
0.0001066 3.8e-05 0
0.000103352 4.76905e-05 0
0.000101803 4.8465e-05 0
0.000103685 3.89398e-05 0
0.00010245 3.8825e-05 0
0.000103525 3.7625e-05 0
0.000101092 3.99779e-05 0
0.000101267 3.82619e-05 0
0.000101382 4.2025e-05 0
0.000103187 4.05286e-05 0
0.000103359 4.24605e-05 0
9.87383e-05 4.5447e-05 0
9.99411e-05 4.35161e-05 0
9.744e-05 4.33145e-05 0
0.00010045 3.725e-05 0
0.000101475 3.7375e-05 0
9.70845e-05 4.65215e-05 0
9.52614e-05 4.67664e-05 0
9.61768e-05 4.49944e-05 0
9.9729e-05 3.87704e-05 0
9.78901e-05 3.9598e-05 0
9.85823e-05 3.81492e-05 0
9.62289e-05 3.93709e-05 0
9.74259e-05 3.81279e-05 0
9.7375e-05 3.6875e-05 0
9.63045e-05 3.76631e-05 0
9.58e-05 5e-05 0
9.32e-05 5e-05 0
9.47542e-05 4.8457e-05 0
9.49675e-05 3.85246e-05 0
9.36214e-05 3.89472e-05 0
9.40006e-05 3.74906e-05 0
9.66411e-05 4.12573e-05 0
9.44241e-05 4.07079e-05 0
9.03569e-05 4.24993e-05 0
9.21701e-05 4.02409e-05 0
9.27439e-05 4.27744e-05 0
8.89795e-05 4.09067e-05 0
9.03071e-05 4.0248e-05 0
9.25447e-05 3.77721e-05 0
9.3275e-05 3.6375e-05 0
9.07708e-05 3.87127e-05 0
9.11303e-05 3.70839e-05 0
9.11933e-05 4.55145e-05 0
9.30678e-05 4.73279e-05 0
9.11886e-05 4.82603e-05 0
8.87724e-05 3.88076e-05 0
8.99595e-05 3.75116e-05 0
9.02e-05 3.6e-05 0
8.89241e-05 3.6954e-05 0
8.36977e-05 4.59472e-05 0
8.36223e-05 4.83578e-05 0
8.20467e-05 4.74142e-05 0
8.71227e-05 4.03557e-05 0
8.61e-05 3.55e-05 0
8.68368e-05 3.65714e-05 0
8.5484e-05 3.6588e-05 0
8.47735e-05 4.02845e-05 0
8.23121e-05 4.21599e-05 0
8.26582e-05 3.98147e-05 0
8.46943e-05 4.2454e-05 0
8.38832e-05 3.78613e-05 0
8.35569e-05 3.63808e-05 0
8.44098e-05 3.6291e-05 0
8.5075e-05 3.5375e-05 0
8.51465e-05 4.77163e-05 0
8.3025e-05 3.5125e-05 0
8.22824e-05 3.68659e-05 0
8.1446e-05 3.57362e-05 0
8.05884e-05 3.71794e-05 0
7.53471e-05 4.77524e-05 0
7.38313e-05 4.73927e-05 0
7.39102e-05 4.61526e-05 0
7.9826e-05 3.58588e-05 0
7.88607e-05 3.76287e-05 0
7.81733e-05 3.57987e-05 0
8.16783e-05 3.84471e-05 0
8.07975e-05 4.04095e-05 0
7.52138e-05 4.04775e-05 0
7.67682e-05 4.17043e-05 0
7.49617e-05 4.21803e-05 0
7.52903e-05 3.84008e-05 0
7.38293e-05 3.93136e-05 0
[...]
CELL_DATA 58684
VECTORS velocity DOUBLE
74.4054 0.337242 0
87.271 0.000146763 0
87.2451 -5.90898e-05 0
87.2769 -0.00159793 0
87.25 0.00149571 0
87.282 -0.00285754 0
87.2561 0.00332452 0
77.8933 -0.000601048 0
77.9147 -0.0251506 0
78.0483 -0.00170834 0
78.1795 -0.00383431 0
78.2538 -0.410985 0
77.9609 -0.109695 0
78.3408 -0.135568 0
77.9359 -0.1847 0
78.5585 -0.169397 0
77.8945 -0.113426 0
78.9484 -0.158014 0
77.9993 -0.318331 0
79.486 -0.110104 0
77.9057 -0.117115 0
78.9133 -0.371211 0
85.7194 -2.17096 0
77.8672 0.0127746 0
77.8762 0.0515247 0
77.8663 0.0249842 0
77.9273 0.143316 0
77.9144 0.0239654 0
77.9181 0.188866 0
78.0439 0.0490471 0
77.9035 0.145933 0
77.9913 0.0340088 0
77.8678 0.143655 0
78.419 0.162366 0
78.1222 1.13646 0
78.2566 0.0694483 0
77.9145 0.181149 0
78.5057 0.354808 0
87.2883 0.000566089 0
87.2941 0.000137842 0
87.3029 -0.00598587 0
87.3039 -0.00257927 0
87.315 0.000325059 0
87.3238 -0.00498034 0
87.3258 -0.00748323 0
87.3288 -0.00316131 0
87.3379 5.91458e-05 0
87.3445 -0.00752805 0
87.345 -0.00515747 0
87.3551 -0.000355541 0
87.3639 -0.00830512 0
87.3651 -0.00921515 0
87.3675 -0.00459212 0
87.3761 -0.000500487 0
87.3822 -0.0095242 0
87.3825 -0.0072742 0
87.3921 -0.00135133 0
87.4012 -0.0118966 0
87.4022 -0.0118137 0
87.4048 -0.0058991 0
87.4156 -0.000317607 0
87.4176 -0.0146035 0
87.426 -0.00943406 0
87.4378 -0.000910444 0
87.4387 -0.0173372 0
87.4409 -0.0142041 0
87.4494 -0.0116526 0
87.4571 -0.00111782 0
87.458 -0.0170595 0
87.4665 -0.0125 0
87.4761 -0.00180868 0
87.4767 -0.0194109 0
87.4833 -0.0142487 0
87.4911 -0.0234563 0
87.5004 -0.000859744 0
87.5033 -0.0177195 0
87.5089 -0.0113172 0
87.5222 -0.0019352 0
87.5241 -0.024435 0
87.5465 -0.0199932 0
87.5285 -0.0196826 0
87.5484 -0.00144337 0
87.557 -0.0129077 0
87.5507 -0.0250165 0
87.5815 -0.0156909 0
87.5759 -0.0208377 0
87.5727 -0.0286647 0
87.585 -0.034516 0
87.608 -0.0220809 0
87.623 -0.0314037 0
87.5985 -0.0267121 0
87.6158 -0.0384963 0
87.6352 -0.0294289 0
87.6307 -0.0296566 0
87.6398 -0.0408114 0
87.6734 -0.0383835 0
87.6556 -0.0328383 0
87.6633 -0.0433458 0
87.6827 -0.0503411 0
87.6895 -0.0378951 0
87.7162 -0.0459024 0
87.6922 -0.0402851 0
87.7195 -0.013486 0
87.7207 -0.051131 0
87.7417 -0.0484709 0
87.7327 -0.0524262 0
87.7446 -0.0149825 0
87.7483 -0.0560839 0
87.7655 -0.0617309 0
87.7857 -0.0353987 0
87.7818 -0.0378745 0
87.7663 -0.0513685 0
87.8019 -0.0665127 0
87.8015 -0.0275023 0
87.8325 -0.0609066 0
87.819 -0.0394989 0
87.8563 -0.0031737 0
87.8433 -0.0691666 0
87.859 -0.0782175 0
87.8919 -0.0696549 0
87.9119 -0.0526954 0
87.8653 -0.0418458 0
87.9012 -0.0795045 0
87.938 -0.0535331 0
87.9329 -0.0832555 0
87.9072 -0.0295931 0
87.946 -0.0754337 0
87.9602 -0.0284095 0
87.9595 -0.0872928 0
87.9874 -0.10004 0
88.0207 -0.059259 0
88.0143 -0.0828127 0
87.9864 -0.0386515 0
88.0544 -0.107325 0
87.999 -0.0308834 0
88.0335 -0.106954 0
88.0995 -0.119701 0
88.1109 -0.0841075 0
88.1273 -0.102442 0
88.0865 -0.100272 0
88.1151 -0.109661 0
88.0799 -0.0472586 0
88.1582 -0.125906 0
88.1838 -0.138181 0
88.2121 -0.0901133 0
88.1361 -0.0663257 0
88.1785 -0.118198 0
88.1991 -0.139342 0
88.1582 -0.0277586 0
88.2657 -0.14926 0
88.2788 -0.164226 0
88.3143 -0.100759 0
88.2302 -0.0877354 0
88.2913 -0.137456 0
88.3121 -0.164608 0
88.2499 -0.0294497 0
88.3306 -0.189553 0
88.3778 -0.202449 0
88.387 -0.142755 0
88.386 -0.165208 0
88.4314 -0.151301 0
88.4171 -0.209297 0
88.4092 -0.0549501 0
88.426 -0.19681 0
88.4946 -0.201248 0
88.4619 -0.0660367 0
88.5566 -0.238302 0
88.5802 -0.220319 0
88.5584 -0.140222 0
88.6137 -0.107907 0
88.561 -0.243819 0
88.5966 -0.268111 0
88.5863 -0.0547934 0
88.6625 -0.272696 0
88.7073 -0.280201 0
88.6311 -0.201148 0
88.6865 -0.128264 0
88.7215 -0.166941 0
88.7379 -0.319396 0
88.7634 -0.110056 0
88.796 -0.299718 0
88.8246 -0.294471 0
88.8481 -0.343628 0
88.7915 -0.00544558 0
88.9399 -0.3438 0
88.8319 -0.265719 0
88.9412 -0.241922 0
89.0053 -0.283199 0
88.9861 -0.382073 0
89.0368 -0.386432 0
88.9016 -0.0873395 0
89.0707 -0.376858 0
89.0968 -0.433795 0
89.1088 -0.417681 0
89.1841 -0.09815 0
89.0909 -0.332607 0
89.2513 -0.482822 0
89.2927 -0.368196 0
89.2187 -0.310385 0
89.3059 -0.511772 0
89.2915 -0.504401 0
89.1745 -0.0879291 0
89.3865 -0.563252 0
89.4207 -0.530053 0
89.5781 -0.104485 0
89.5124 -0.583671 0
89.3674 -0.407641 0
89.6007 -0.375249 0
89.6606 -0.484636 0
89.5623 -0.530622 0
89.5854 -0.634633 0
89.6313 -0.23064 0
89.746 -0.616659 0
89.7051 -0.707205 0
89.8818 -0.722295 0
89.8321 -0.0120179 0
89.8375 -0.595002 0
89.8933 -0.748406 0
89.7354 -0.184819 0
89.9528 -0.787838 0
90.0383 -0.45638 0
89.9972 -0.823833 0
90.188 -0.25714 0
90.1555 -0.714637 0
90.1233 -0.840192 0
90.0581 -0.129286 0
90.2587 -0.868686 0
90.4299 -0.849747 0
90.2827 -0.72185 0
90.3231 -0.436837 0
90.4622 -0.976478 0
90.4644 -0.384105 0
90.6113 -0.0660613 0
90.4077 -0.769393 0
90.5724 -0.968979 0
90.6584 -1.04047 0
90.6757 -0.327687 0
90.7964 -0.900297 0
90.9466 -0.987612 0
90.7435 -0.110349 0
91.0882 -0.962368 0
91.0066 -1.07342 0
90.8697 -0.794072 0
90.919 -0.383668 0
91.0297 -0.449341 0
91.155 -1.08121 0
91.067 -0.00755266 0
91.2594 -1.15328 0
91.3903 -1.09583 0
91.3477 -1.15294 0
91.3009 -0.251838 0
91.4499 -0.940152 0
91.6925 -0.95544 0
91.2573 -0.00572896 0
91.7831 -1.13371 0
91.9526 -0.964495 0
91.6073 -0.698177 0
91.425 -0.289045 0
91.9506 -1.08971 0
91.5859 -0.358855 0
91.3669 -0.0174298 0
91.8744 -0.734197 0
92.2054 -0.992622 0
92.3667 -0.927387 0
91.5429 -0.0789017 0
92.308 -0.634017 0
92.4508 -0.831505 0
91.387 0.029136 0
92.5856 -0.819884 0
92.7675 -0.688521 0
92.3847 -0.246268 0
91.1157 0.00878401 0
92.9169 -0.462873 0
92.0395 0.19056 0
92.2672 0.296145 0
92.7866 -0.308353 0
92.5621 -0.0427385 0
93.234 -0.0713758 0
91.2279 0.369308 0
93.2209 -0.175461 0
92.7589 0.404217 0
93.4068 0.470672 0
91.1501 0.106558 0
93.3489 1.17806 0
93.1143 1.41133 0
89.7121 0.19772 0
93.5772 0.865654 0
93.4661 1.3497 0
91.0911 1.47398 0
90.858 0.702246 0
92.4053 1.1039 0
93.3548 1.88631 0
89.9694 0.330364 0
92.8442 2.78048 0
93.5311 2.12219 0
93.5419 2.35046 0
89.1692 1.41514 0
91.8549 2.91499 0
92.8904 3.16905 0
89.1583 0.231593 0
92.7005 3.67275 0
92.3472 3.55712 0
91.3508 5.18998 0
86.8002 0.3971 0
92.503 4.88306 0
90.4979 3.52461 0
88.6077 1.56684 0
88.1969 2.99007 0
92.2615 5.3915 0
91.1064 5.84739 0
87.2475 0.608944 0
91.178 6.67459 0
87.2622 -0.000199833 0
87.2681 -0.000197707 0
87.276 0.00526099 0
87.277 0.00226765 0
87.2874 -0.000317852 0
87.2959 0.00475348 0
87.2976 0.00648499 0
87.301 0.00215851 0
87.3092 4.05374e-07 0
87.3156 0.00734682 0
87.316 0.00457899 0
87.3257 0.000318916 0
87.3339 0.00787912 0
87.335 0.00880779 0
87.3373 0.00441078 0
87.3458 0.000469068 0
87.3517 0.0093289 0
87.3522 0.00699393 0
87.3616 0.00133095 0
87.3705 0.0115788 0
87.3716 0.0115331 0
87.3834 0.0152716 0
87.3741 0.00567942 0
87.3913 0.00944538 0
87.4045 0.0148825 0
87.395 0.00945079 0
87.4102 0.014237 0
87.4187 0.0116377 0
87.4257 0.0187329 0
87.4151 0.00959524 0
87.4356 0.0125864 0
87.444 0.0209166 0
87.4352 0.0101222 0
87.4606 0.0239969 0
87.4639 0.0220563 0
87.4696 0.0169126 0
87.4562 0.0122879 0
87.4728 0.0179705 0
87.4898 0.0173823 0
87.4785 0.0114911 0
87.5061 0.0296659 0
87.5056 0.0113426 0
87.5168 0.0201258 0
87.5017 0.0153694 0
87.521 0.0251439 0
87.5434 0.0287895 0
87.5518 0.015906 0
87.5395 0.0263945 0
87.5619 0.03115 0
87.5647 0.0342219 0
87.5891 0.0176071 0
87.5789 0.0221184 0
87.5936 0.0314151 0
87.6086 0.0439704 0
87.6162 0.0213242 0
87.6219 0.0351813 0
87.6314 0.0462058 0
87.6455 0.0271409 0
87.626 0.0327737 0
87.6543 0.0511589 0
87.6566 0.0488035 0
87.666 0.0312545 0
87.6776 0.0223986 0
87.6877 0.045563 0
87.629 0.0147116 0
87.7042 0.0528168 0
87.7374 0.0627837 0
87.7199 0.0530671 0
87.705 0.0318551 0
87.75 0.0632847 0
87.7572 0.0562119 0
87.7754 0.0277876 0
87.7395 0.0522182 0
87.7809 0.0591001 0
87.7979 0.0681856 0
87.747 0.0164978 0
87.7859 0.0488739 0
87.8336 0.0787085 0
87.795 0.0402551 0
87.8448 0.0699309 0
87.8747 0.0831314 0
87.8495 0.0611192 0
87.8671 0.0251113 0
87.8845 0.0727258 0
87.9029 0.0851413 0
87.8816 0.021633 0
87.9268 0.0932904 0
87.8924 0.0675352 0
87.9492 0.0776456 0
87.9086 0.0532685 0
87.9603 0.100469 0
88.0193 0.120631 0
87.9748 0.0305947 0
87.9757 0.0825612 0
88.0445 0.127735 0
88.0201 0.0907241 0
87.963 0.037742 0
88.0599 0.118744 0
88.0814 0.124565 0
88.0372 0.0306814 0
88.0819 0.0557446 0
88.1121 0.108683 0
88.1306 0.144059 0
88.0586 0.0767235 0
88.1597 0.139731 0
88.1797 0.148905 0
88.175 0.0508573 0
88.1566 0.0922882 0
88.2261 0.165636 0
88.2183 0.140793 0
88.1192 0.0467695 0
88.2429 0.157974 0
88.2899 0.168958 0
88.258 0.0671051 0
88.2558 0.144508 0
88.3446 0.200874 0
88.329 0.153297 0
88.206 0.049272 0
88.3668 0.187634 0
88.4301 0.227118 0
88.3113 0.0658059 0
88.4146 0.180269 0
88.3871 0.0844098 0
88.4528 0.188825 0
88.3676 0.106897 0
88.4857 0.240107 0
88.5371 0.239807 0
88.4388 0.0662051 0
88.5273 0.234017 0
88.5988 0.269856 0
88.5455 0.0694671 0
88.497 0.197087 0
88.5864 0.230573 0
88.642 0.273414 0
88.5213 0.0415679 0
88.6505 0.249319 0
88.7452 0.323264 0
88.7229 0.271441 0
88.6545 0.0824813 0
88.7896 0.283489 0
88.6122 0.104981 0
88.6513 0.239353 0
88.7831 0.31379 0
88.8826 0.356777 0
88.8903 0.365117 0
88.6273 0.00664192 0
88.9812 0.416009 0
88.9907 0.405588 0
89.0093 0.359481 0
88.9444 0.177479 0
89.0417 0.194618 0
89.026 0.402215 0
88.8075 0.109542 0
89.1385 0.455509 0
89.1287 0.446287 0
89.1336 0.402024 0
89.026 0.117012 0
89.2084 0.449357 0
89.3255 0.560252 0
89.1851 0.210621 0
89.1358 0.22343 0
89.2835 0.454111 0
89.44 0.586663 0
89.0612 0.138312 0
89.4769 0.619593 0
89.5122 0.605108 0
89.3304 0.119332 0
89.6441 0.694381 0
89.6749 0.667519 0
89.7392 0.57811 0
89.5276 0.254563 0
89.4989 0.287709 0
89.6584 0.645939 0
89.4076 0.185054 0
89.8166 0.771593 0
89.8666 0.730821 0
89.8655 0.675364 0
89.6117 0.10274 0
90.031 0.797628 0
90.0466 0.816094 0
89.8954 0.45918 0
90.14 0.64372 0
89.9111 0.372373 0
90.0996 0.784085 0
89.8036 0.236506 0
90.2521 0.915758 0
90.2748 0.886921 0
89.8388 0.187806 0
90.3444 0.817758 0
90.5205 0.945574 0
90.4357 0.921687 0
90.3236 0.215361 0
90.7247 0.99157 0
90.7679 1.05764 0
90.2802 0.63833 0
90.664 0.784455 0
90.339 0.38942 0
90.959 1.11504 0
90.5053 0.12092 0
91.0212 1.08471 0
91.0151 1.02862 0
90.3293 0.0959398 0
90.9475 0.93065 0
91.3322 1.10248 0
91.4236 1.11253 0
90.8916 0.27942 0
91.4954 1.08646 0
91.5438 1.15783 0
90.8749 0.704165 0
91.5499 0.765425 0
91.044 0.271845 0
91.7083 1.15646 0
91.0658 0.101386 0
91.8524 1.08047 0
91.9405 1.06485 0
90.9012 0.0706472 0
91.7604 0.880839 0
92.2253 0.994254 0
92.3854 0.930227 0
91.3177 0.179254 0
92.2221 0.871067 0
92.5202 0.880713 0
91.8517 0.751693 0
92.3038 0.440151 0
91.3924 0.113332 0
92.2902 0.788445 0
91.3965 0.0418366 0
92.7624 0.773912 0
92.8465 0.626048 0
91.3021 0.0393348 0
92.5469 0.311121 0
92.9915 0.341769 0
93.1757 0.206475 0
91.3639 -0.0966007 0
93.2614 0.00292354 0
93.3052 -0.134145 0
91.5023 -0.264442 0
93.3184 -0.164661 0
92.5089 -0.624334 0
91.7989 -0.0850079 0
91.6112 0.0061462 0
93.4483 -0.456691 0
93.2019 -0.857089 0
93.6307 -1.03126 0
91.2528 -0.0049921 0
92.9007 -1.31054 0
93.6211 -1.76902 0
91.1958 -0.122207 0
92.7355 -1.27941 0
93.5893 -2.31089 0
92.1607 -1.75125 0
91.1556 -0.654856 0
93.3916 -2.66303 0
93.2482 -2.95815 0
92.1372 -1.10241 0
91.538 -3.13414 0
89.4756 -2.59528 0
92.8838 -2.99927 0
89.9256 -0.404986 0
92.8594 -3.95279 0
90.2345 7.28111 0
90.9801 6.50293 0
85.4897 1.92617 0
90.1254 7.23954 0
87.8558 6.63119 0
89.4574 7.87599 0
86.1006 0.755277 0
88.4617 8.0831 0
87.2701 7.95942 0
84.8089 0.962977 0
87.3472 8.48615 0
92.7641 -4.37445 0
90.1769 -0.251343 0
92.4914 -4.72275 0
91.2344 -5.12905 0
90.6795 -4.41479 0
89.2533 -0.267406 0
91.4756 -5.71892 0
86.0173 7.75726 0
90.8094 -7.00302 0
88.9868 -1.39777 0
90.4808 -6.77031 0
89.6027 -7.74007 0
83.6198 2.36997 0
89.1588 -7.59774 0
90.4071 -4.2289 0
89.6569 -6.88072 0
87.7688 -5.09582 0
86.827 -0.837647 0
88.7042 -6.99219 0
87.8957 -7.40627 0
85.3857 8.18582 0
87.9712 -7.4171 0
87.6829 -0.453562 0
86.9212 -7.77454 0
86.4028 -8.48261 0
86.1252 -0.563139 0
85.2944 -8.63055 0
85.805 -6.33111 0
83.8865 -0.652048 0
84.2669 -8.784 0
84.3171 -4.87239 0
86.0787 -3.8321 0
84.8114 -7.51892 0
83.6821 -7.87378 0
86.3982 4.39371 0
82.6768 0.528635 0
85.7946 2.9388 0
84.4112 -0.0723776 0
83.1348 -8.54206 0
85.0007 7.75311 0
82.3943 0.385068 0
84.4106 6.59842 0
82.255 -8.40689 0
83.9677 -1.71871 0
81.5093 -6.13799 0
84.4212 8.83923 0
81.2386 2.02991 0
84.3167 8.76436 0
82.0383 7.31303 0
81.5323 0.414617 0
82.6952 7.68673 0
82.1333 -6.38388 0
83.4603 -0.475966 0
81.3882 -8.53569 0
81.4022 -8.30313 0
83.0777 8.25601 0
81.1157 7.87325 0
80.8091 0.0398508 0
82.1992 8.12678 0
80.2626 5.09426 0
80.8208 2.29407 0
80.4516 -8.48454 0
81.3063 -1.10268 0
80.7883 -8.35999 0
79.9855 8.32726 0
79.8102 -7.75244 0
80.3967 -1.08036 0
80.0361 -3.40587 0
78.5315 -7.44845 0
81.5617 -4.11657 0
78.3857 -7.20259 0
79.8613 -0.289284 0
77.461 -6.8826 0
79.5483 2.87062 0
80.1518 0.461712 0
79.536 6.99124 0
79.494 0.114972 0
79.346 8.20399 0
79.046 7.70117 0
79.1544 0.184433 0
78.2614 6.73973 0
78.9084 0.133323 0
78.8431 -6.43822 0
79.861 -0.576021 0
80.0781 6.05952 0
77.9824 0.741504 0
77.8085 6.32962 0
77.3403 -6.84393 0
79.9756 -0.232047 0
75.694 -5.85032 0
77.9342 -0.442244 0
76.5096 -5.75793 0
78.7818 2.55486 0
77.8629 0.120106 0
79.5529 -5.24157 0
77.8661 -0.113375 0
75.8056 -5.42088 0
77.2003 5.71115 0
77.1846 -4.28031 0
77.9006 -0.246568 0
76.0919 -4.64239 0
78.1558 3.14959 0
75.9918 2.00112 0
76.6829 4.93632 0
77.7492 -0.988429 0
75.9489 -5.14648 0
77.859 0.403128 0
76.6354 6.66195 0
77.8874 -2.38424 0
77.8637 -0.0849638 0
75.6057 -4.64051 0
76.3532 5.95313 0
77.908 0.71912 0
76.2718 4.65199 0
76.0027 4.59285 0
77.8548 0.380479 0
75.1952 4.08764 0
74.7554 -4.17128 0
77.8751 -0.29712 0
74.4528 -4.16234 0
76.7545 -1.98626 0
77.8767 -0.203216 0
73.8182 -2.83649 0
75.2702 5.08706 0
77.8416 0.62452 0
76.4624 3.25824 0
74.4178 -2.57708 0
77.8091 -0.311395 0
73.7774 -2.34743 0
74.1459 3.74354 0
77.8213 0.267937 0
74.5387 3.52589 0
74.8282 2.87757 0
77.8642 0.0361882 0
74.0049 3.06439 0
75.0879 -1.51647 0
77.7807 -0.54422 0
74.3917 -1.33556 0
73.2339 -0.851497 0
77.1924 -0.928662 0
73.2828 -0.720631 0
76.9142 0.962069 0
77.8302 0.0758225 0
76.0732 2.44434 0
73.7822 2.46803 0
77.7319 0.059827 0
73.3577 1.55911 0
77.4962 -0.23707 0
77.8564 -0.111441 0
73.2805 -0.237007 0
73.7966 -0.0928893 0
77.8469 -0.0662982 0
75.9613 0.309582 0
73.9617 0.529344 0
77.8505 -0.0625536 0
77.4072 -5.67253 0
77.9733 -0.434282 0
77.8594 0.131722 0
78.2823 6.90284 0
79.2467 -7.7582 0
82.2994 -0.948235 0
80.6391 0.998471 0
81.966 8.63471 0
77.8321 0.279888 0
74.7186 4.86769 0
74.1747 -2.84494 0
77.8268 -0.199703 0
77.9314 -0.572995 0
77.7484 -3.68055 0
78.0178 0.803165 0
77.9261 0.202655 0
77.844 -0.000952527 0
73.8472 2.05852 0
79.4546 0.467571 0
78.5133 1.58074 0
78.8506 -1.37523 0
80.4434 -0.693027 0
86.215 -1.26762 0
85.7787 -8.47424 0
87.7032 8.08172 0
85.7363 0.46831 0
77.8667 1.669 0
79.8985 8.02116 0
78.794 -7.10245 0
79.4274 -2.31978 0
77.0224 -1.46175 0
74.7769 -0.224321 0
76.3852 5.84699 0
78.1947 1.89859 0
78.028 -1.79282 0
74.9817 -4.64589 0
92.2322 -5.36465 0
88.9251 -0.659614 0
88.4868 0.788751 0
92.6902 4.45611 0
78.0134 -0.816497 0
77.8987 -0.0460982 0
77.8946 0.148218 0
79.0791 0.760143 0
83.4017 0.734188 0
83.0296 4.11126 0
81.4341 -1.99285 0
84.6351 -1.74732 0
81.9251 4.9082 0
84.9385 8.3187 0
83.7504 -8.70171 0
82.8249 -1.92204 0
87.007 1.61067 0
88.102 5.02592 0
86.6395 -2.79073 0
87.8328 -0.0408359 0
91.1353 -0.247137 0
93.5877 -1.28118 0
93.4385 0.481307 0
90.2954 0.0270596 0
91.3618 0.00404444 0
92.8873 0.607811 0
92.666 -0.589336 0
91.4908 0.0311623 0
79.1586 -1.45167 0
78.5507 -0.575729 0
78.4777 1.24005 0
79.3304 0.955074 0
78.3027 1.23065 0
77.8997 0.243563 0
77.863 -0.105926 0
78.2154 -1.1317 0
89.9622 0.949327 0
91.2117 1.87039 0
90.2935 -1.13946 0
90.5227 -0.168909 0
76.0894 -0.96053 0
77.8669 -0.156298 0
77.532 -0.439713 0
77.89 -0.378075 0
77.8658 0.204046 0
77.9422 0.968538 0
92.0113 1.01083 0
91.1964 0.159173 0
91.3212 -0.0056391 0
91.7476 -1.08749 0
81.9109 -0.0389544 0
81.1287 -2.83278 0
82.2289 1.80869 0
80.8738 0.448673 0
78.004 4.05921 0
77.5671 7.33837 0
77.2922 -6.28029 0
78.4497 -3.23897 0
78.9264 -2.11855 0
77.655 -2.23453 0
78.1117 4.65112 0
78.347 2.23051 0
91.4927 0.0426145 0
91.2058 0.140045 0
91.405 -0.046355 0
92.3882 0.118684 0
79.9896 -5.43736 0
81.0913 -5.27249 0
80.6564 4.65193 0
81.2526 8.55544 0
79.2839 -3.99092 0
80.4609 -2.31854 0
80.2991 3.12446 0
79.4037 1.5422 0
91.2679 1.16881 0
90.7243 0.14507 0
90.9483 -0.0121746 0
90.8588 -1.04599 0
77.3942 1.01915 0
77.8545 0.0282127 0
91.3859 -0.0609274 0
92.0297 -0.371505 0
91.7449 0.259294 0
91.2324 0.0398036 0
78.9432 -0.959919 0
78.4478 -1.337 0
79.28 1.74865 0
78.3023 0.736245 0
77.9044 -0.147646 0
78.2072 -0.702195 0
77.9996 0.315924 0
77.8778 0.136408 0
74.2729 1.71689 0
77.0637 1.52813 0
87.4112 -3.15323 0
90.8017 -6.34798 0
91.7802 5.79111 0
87.12 2.27418 0
76.9378 -2.3215 0
74.9078 -2.90716 0
90.08 0.157436 0
90.337 0.885664 0
89.4098 0.0736944 0
89.9987 0.83387 0
90.3548 -0.861261 0
90.2031 -0.14238 0
89.7728 -0.693284 0
89.697 -0.0143204 0
91.1075 -0.220102 0
91.2262 -0.632799 0
91.076 0.39838 0
90.8409 0.00832112 0
77.8701 0.178615 0
77.7308 0.542046 0
76.5598 0.451957 0
74.3623 0.847536 0
77.8232 -0.252391 0
77.8516 -0.169113 0
77.4461 0.274265 0
77.3892 -0.754767 0
93.3907 -2.71436 0
90.2076 -1.74374 0
91.1986 2.21066 0
93.5666 1.57817 0
78.0669 -0.0627481 0
78.1839 -0.364615 0
77.9073 0.0546457 0
78.378 0.26207 0
90.5416 -0.208294 0
90.5621 -0.537689 0
90.5846 0.360675 0
90.2089 0.115878 0
89.2366 0.162089 0
89.4115 0.513596 0
89.4349 -0.59766 0
89.3263 -0.144941 0
78.5685 -0.900908 0
79.548 -2.14216 0
78.9629 1.61628 0
78.5571 1.27503 0
79.3262 2.88795 0
77.6904 1.85624 0
78.2314 -1.9273 0
78.9388 -2.80122 0
91.828 -0.524485 0
92.8043 0.326242 0
92.9749 -0.321959 0
92.2501 0.558243 0
77.7662 -1.15371 0
77.8919 -1.36992 0
77.9022 1.08736 0
77.4321 1.31214 0
89.2516 0.526515 0
88.9728 0.15639 0
89.0313 -0.0991061 0
89.1974 -0.449208 0
85.4713 4.27258 0
87.5116 7.13498 0
86.9997 -8.40681 0
86.5418 -3.34647 0
75.3893 -3.43217 0
77.7051 -3.52096 0
85.0871 -3.06625 0
85.7501 -1.09929 0
84.062 0.455083 0
87.462 3.10748 0
74.9987 4.63507 0
76.8553 2.7385 0
89.925 -0.051908 0
90.0941 -0.544311 0
89.9787 0.358919 0
89.8921 0.0971801 0
89.3806 -0.369516 0
89.1428 -1.51212 0
89.7036 2.08408 0
88.7127 0.271813 0
83.412 1.39948 0
81.6179 0.351282 0
82.7732 -0.338641 0
83.4579 -3.11476 0
91.7083 0.333329 0
91.9948 0.87835 0
92.1506 -0.955343 0
92.021 -0.0695591 0
82.4262 -3.8363 0
83.5436 -1.83886 0
82.7427 2.71577 0
85.3553 5.99423 0
88.8677 0.317151 0
88.7442 0.0599239 0
88.9133 -0.0963311 0
88.8592 -0.329394 0
89.4286 -0.181441 0
89.5848 -0.00917706 0
89.5588 0.101627 0
89.3957 0.423486 0
80.0943 0.499532 0
79.8442 1.30758 0
80.1153 -1.14831 0
80.9889 -0.321104 0
81.6899 2.83244 0
80.0177 1.95276 0
79.3976 -2.83998 0
78.5389 -2.86978 0
91.1692 -0.476699 0
90.912 -0.276196 0
90.7233 0.372567 0
91.6824 0.615882 0
80.0359 3.85314 0
80.5393 2.57742 0
79.4421 -0.827005 0
79.26 -0.29519 0
79.088 0.266772 0
79.851 0.889657 0
76.6835 -0.876932 0
77.627 -1.3519 0
92.7407 -3.62702 0
90.2515 -2.06112 0
89.6822 3.74574 0
93.1342 3.68645 0
77.9532 -0.866359 0
77.8932 -0.144693 0
77.8375 0.197593 0
78.026 0.85038 0
78.301 0.0871457 0
78.3319 0.628258 0
78.4921 -0.342949 0
78.65 -0.0195107 0
75.575 -0.269665 0
73.2959 0.152179 0
85.4809 3.22651 0
89.6458 2.97149 0
88.3144 -2.5145 0
88.9115 -4.97211 0
77.7041 2.07248 0
77.2488 1.15877 0
77.8617 -0.0256765 0
77.711 -0.0517694 0
80.6401 6.84849 0
78.4726 4.06726 0
80.2465 -4.30541 0
79.3023 -8.12278 0
77.4564 0.785564 0
77.8109 0.424495 0
91.1109 0.529861 0
91.4514 1.15343 0
91.1571 -1.04883 0
91.088 -0.207023 0
89.0455 -0.116916 0
89.2464 -0.0797952 0
89.22 0.0681811 0
89.1222 0.388528 0
93.3412 0.401635 0
92.1639 1.36383 0
92.2446 -0.537945 0
93.4676 -0.658908 0
77.546 0.106538 0