# vtk DataFile Version 3.0
Unstructured Grid for Triangles
ASCII
DATASET UNSTRUCTURED_GRID
POINTS 29612 DOUBLE
-2.72397e-05 1.23686e-06 0
-2.95789e-05 9.5838e-07 0
-2.77865e-05 -3.1235e-07 0
0.0002024 5e-05 0
0.000203975 4.9875e-05 0
0.000205 5e-05 0
0.000203975 -4.9875e-05 0
0.0002024 -5e-05 0
0.000205 -5e-05 0
0.00020295 4.975e-05 0
0.00020295 -4.975e-05 0
0.000201925 4.9625e-05 0
0.000201925 -4.9625e-05 0
-5.29747e-05 -4.79887e-05 0
-5.5e-05 -5e-05 0
-5.24e-05 -5e-05 0
-5.05983e-05 -4.84325e-05 0
-4.98e-05 -5e-05 0
-4.72e-05 -5e-05 0
-4.83864e-05 -4.87761e-05 0
-4.46e-05 -5e-05 0
-4.59e-05 -4.84239e-05 0
-4.29453e-05 -4.24878e-05 0
-4.47486e-05 -4.20717e-05 0
-4.41829e-05 -4.36609e-05 0
-5.12578e-05 -4.62101e-05 0
-4.93077e-05 -4.53594e-05 0
-5.0706e-05 -4.39006e-05 0
-4.19243e-05 -4.77545e-05 0
-4.40307e-05 -4.71837e-05 0
-4.3691e-05 -4.86724e-05 0
-5.16129e-05 -4.20948e-05 0
-4.95355e-05 -4.15432e-05 0
-5.11646e-05 -4.0128e-05 0
-3.94697e-05 -4.81197e-05 0
-4.06302e-05 -4.55143e-05 0
-5.37257e-05 -3.88197e-05 0
-5.31099e-05 -4.07297e-05 0
-5.23982e-05 -3.88328e-05 0
-3.70063e-05 -4.72956e-05 0
-3.68e-05 -5e-05 0
-3.5308e-05 -4.85302e-05 0
-5.072e-05 -3.7867e-05 0
-4.85506e-05 -3.83975e-05 0
-4.90949e-05 -3.59622e-05 0
-3.37127e-05 -4.84331e-05 0
-3.16e-05 -5e-05 0
-3.26495e-05 -4.7415e-05 0
-5.5e-05 -3.5e-05 0
-5.31201e-05 -3.70361e-05 0
-5.28367e-05 -3.46817e-05 0
-3.63898e-05 -4.48809e-05 0
-3.83315e-05 -4.60336e-05 0
-3.26269e-06 -4.15503e-05 0
-5.99662e-06 -4.09556e-05 0
-5.46944e-06 -4.29488e-05 0
-5.29747e-05 4.79887e-05 0
-5.5e-05 5e-05 0
-5.5e-05 4.75e-05 0
-5.5e-05 4.5e-05 0
-5.34834e-05 4.29171e-05 0
-5.26943e-05 4.42611e-05 0
-5.34026e-05 4.60176e-05 0
-5.31099e-05 4.07297e-05 0
-5.11672e-05 4.01178e-05 0
-5.16129e-05 4.20948e-05 0
-5.24e-05 5e-05 0
-5.05983e-05 4.84325e-05 0
-5.31201e-05 3.70361e-05 0
-5.072e-05 3.7867e-05 0
-5.23982e-05 3.88328e-05 0
-4.8341e-05 4.69132e-05 0
-4.83679e-05 4.87539e-05 0
-5.28367e-05 3.46817e-05 0
-5.5e-05 3.25e-05 0
-5.25657e-05 3.28474e-05 0
-4.98e-05 5e-05 0
-5.30382e-05 3.125e-05 0
-4.19243e-05 4.77545e-05 0
-4.40015e-05 4.7335e-05 0
-4.25917e-05 4.63678e-05 0
-4.35138e-05 2.62661e-05 0
-4.14982e-05 2.74462e-05 0
-4.35654e-05 2.85217e-05 0
-4.59e-05 4.84239e-05 0
-4.36852e-05 4.87027e-05 0
-4.46e-05 5e-05 0
-5.33308e-05 2.92503e-05 0
-5.5e-05 2.75e-05 0
-5.23377e-05 2.76953e-05 0
-4.25282e-05 4.46352e-05 0
-4.09368e-05 4.35728e-05 0
-4.06302e-05 4.55143e-05 0
0.0002009 4.95e-05 0
0.0001998 5e-05 0
0.000199875 4.9375e-05 0
0.00019885 4.925e-05 0
0.0001972 5e-05 0
0.000197825 4.9125e-05 0
0.0001968 4.9e-05 0
0.000195775 4.8875e-05 0
0.0001946 5e-05 0
0.00019475 4.875e-05 0
0.000193725 4.8625e-05 0
0.000192 5e-05 0
0.0001927 4.85e-05 0
0.000191675 4.8375e-05 0
0.00019065 4.825e-05 0
0.0001894 5e-05 0
0.000189625 4.8125e-05 0
0.0001886 4.8e-05 0
0.0001868 5e-05 0
0.000187575 4.7875e-05 0
0.00018655 4.775e-05 0
0.000185515 4.8575e-05 0
0.0001842 5e-05 0
0.0001845 4.75e-05 0
0.000185525 4.7625e-05 0
0.000182564 4.829e-05 0
0.0001816 5e-05 0
0.00018245 4.725e-05 0
0.000183475 4.7375e-05 0
0.000181425 4.7125e-05 0
0.000180295 4.82657e-05 0
0.000179 5e-05 0
0.000179375 4.6875e-05 0
0.0001804 4.7e-05 0
0.000178168 4.80619e-05 0
0.0001764 5e-05 0
0.000177325 4.6625e-05 0
0.00017835 4.675e-05 0
0.000176428 4.76631e-05 0
0.0001763 4.65e-05 0
0.0001738 5e-05 0
0.0001751 4.84164e-05 0
0.000175275 4.6375e-05 0
0.000174025 4.75632e-05 0
0.0001712 5e-05 0
0.000172615 4.78449e-05 0
0.0001722 4.6e-05 0
0.000173225 4.6125e-05 0
0.00017015 4.575e-05 0
0.000171243 4.7381e-05 0
0.000169554 4.79999e-05 0
0.0001686 5e-05 0
0.000167507 4.79751e-05 0
0.000168498 4.64861e-05 0
0.000166 5e-05 0
0.00016558 4.71459e-05 0
0.000167135 4.62887e-05 0
0.0001681 4.55e-05 0
0.00016605 4.525e-05 0
0.000167075 4.5375e-05 0
0.000164059 4.61599e-05 0
0.00016394 4.79552e-05 0
0.000162881 4.6615e-05 0
0.000162975 4.4875e-05 0
0.000165025 4.5125e-05 0
0.000164 4.5e-05 0
0.000161754 4.58641e-05 0
0.000161722 4.78101e-05 0
0.000159956 4.58294e-05 0
0.000160925 4.4625e-05 0
0.00016195 4.475e-05 0
0.000157667 4.60322e-05 0
0.000158875 4.4375e-05 0
0.000159194 4.80155e-05 0
0.0001599 4.45e-05 0
0.00015785 4.425e-05 0
0.000155808 4.56757e-05 0
0.000155647 4.76701e-05 0
0.000154059 4.66642e-05 0
0.000153756 4.50083e-05 0
0.000154839 4.50446e-05 0
0.000156825 4.4125e-05 0
0.000151954 4.80508e-05 0
0.000154052 4.8477e-05 0
0.000153 5e-05 0
0.000154775 4.3875e-05 0
0.000152142 4.56625e-05 0
0.000152821 4.45753e-05 0
0.00015375 4.375e-05 0
0.0001504 5e-05 0
0.000149644 4.85168e-05 0
0.000151787 4.43178e-05 0
0.000152725 4.3625e-05 0
0.000150675 4.3375e-05 0
0.0001517 4.35e-05 0
0.000148119 4.50887e-05 0
0.000148072 4.75757e-05 0
0.000146584 4.63516e-05 0
0.000150008 4.6396e-05 0
0.000149351 4.4543e-05 0
0.00015061 4.46252e-05 0
0.0001476 4.3e-05 0
0.000148625 4.3125e-05 0
0.000146492 4.82975e-05 0
0.000144888 4.73562e-05 0
0.000146676 4.44259e-05 0
0.000145255 4.53656e-05 0
0.000145652 4.38669e-05 0
0.000141401 4.79821e-05 0
0.0001426 5e-05 0
0.00014 5e-05 0
0.000144374 4.38862e-05 0
0.00014555 4.275e-05 0
0.0001435 4.25e-05 0
0.000144525 4.2625e-05 0
0.000142746 4.38121e-05 0
0.000141288 4.43191e-05 0
0.000141707 4.32778e-05 0
0.00013921 4.38992e-05 0
0.000140355 4.5932e-05 0
0.000138302 4.5922e-05 0
0.000142912 4.58869e-05 0
0.000140592 4.30037e-05 0
0.00014145 4.225e-05 0
0.000136458 4.5869e-05 0
0.000137106 4.4063e-05 0
0.0001394 4.2e-05 0
0.000138259 4.28915e-05 0
0.000137484 4.77094e-05 0
0.000139166 4.78902e-05 0
0.00013586 4.78984e-05 0
0.000133449 4.78649e-05 0
0.000134717 4.61848e-05 0
0.000137256 4.25134e-05 0
0.000135323 4.24541e-05 0
0.000136325 4.1625e-05 0
0.000136122 4.2876e-05 0
0.000131206 4.47284e-05 0
0.000133168 4.56738e-05 0
0.000131773 4.65243e-05 0
0.000134756 4.40343e-05 0
0.000132747 4.36463e-05 0
0.000133483 4.26786e-05 0
0.000131081 4.1867e-05 0
0.000132382 4.22815e-05 0
0.000131507 4.3122e-05 0
0.000131059 4.80123e-05 0
0.00013325 4.125e-05 0
0.00012915 4.075e-05 0
0.00012982 4.18199e-05 0
0.000128915 4.26216e-05 0
0.000126366 4.47574e-05 0
0.000127331 4.30908e-05 0
0.000128781 4.44872e-05 0
0.000125336 4.28376e-05 0
0.000130218 4.31077e-05 0
0.000127894 4.16344e-05 0
0.000124774 4.69608e-05 0
0.000127668 4.64148e-05 0
0.000126591 4.8331e-05 0
0.000126722 4.18415e-05 0
0.000125768 4.11931e-05 0
0.000124326 4.13546e-05 0
0.00012505 4.025e-05 0
0.000122408 4.50118e-05 0
0.000120276 4.47432e-05 0
0.00012139 4.32235e-05 0
0.000124336 4.44132e-05 0
0.000123056 4.27595e-05 0
0.000122977 4.09049e-05 0
0.00012185 4.69217e-05 0
0.000122676 4.85947e-05 0
0.000120525 4.86094e-05 0
0.000121479 4.13153e-05 0
0.000119547 4.24221e-05 0
0.000120249 4.07448e-05 0
0.000119925 3.9625e-05 0
0.000119346 4.06114e-05 0
0.000117479 4.47279e-05 0
0.000114726 4.45259e-05 0
0.00011571 4.27814e-05 0
0.000119443 4.66611e-05 0
0.000117447 4.21596e-05 0
0.000118421 4.0752e-05 0
0.000117409 4.04437e-05 0
0.000116775 4.70073e-05 0
0.0001179 4.855e-05 0
0.000115473 4.84802e-05 0
0.00011685 3.925e-05 0
0.000117875 3.9375e-05 0
0.000115454 4.00551e-05 0
0.0001148 3.9e-05 0
0.000115825 3.9125e-05 0
0.000111704 4.23398e-05 0
0.000113786 4.26731e-05 0
0.000112589 4.43871e-05 0
0.000113234 4.06671e-05 0
0.000114754 4.13371e-05 0
0.0001106 4.42326e-05 0
0.000109703 4.24261e-05 0
0.00011275 3.875e-05 0
0.000113775 3.8875e-05 0
0.000110211 4.80875e-05 0
0.000108244 4.71951e-05 0
0.000109312 4.58413e-05 0
0.000111755 3.99116e-05 0
0.00010944 3.92972e-05 0
0.000110415 4.05876e-05 0
0.000108839 4.07536e-05 0
0.000106472 4.76905e-05 0
0.000107274 4.57868e-05 0
0.000108011 3.92415e-05 0
0.000106885 4.04365e-05 0
0.000106625 3.88708e-05 0
0.000105286 4.19254e-05 0
0.000105055 3.95469e-05 0
0.000104215 4.39764e-05 0
0.000106346 4.40629e-05 0
0.000100945 4.51249e-05 0
0.000102825 4.5614e-05 0
0.000101189 4.68452e-05 0
0.000107625 3.8125e-05 0
0.000105575 3.7875e-05 0
0.0001066 3.8e-05 0
0.000103352 4.76905e-05 0
0.000101803 4.8465e-05 0
0.000103685 3.89398e-05 0
0.00010245 3.8825e-05 0
0.000103525 3.7625e-05 0
0.000101092 3.99779e-05 0
0.000101267 3.82619e-05 0
0.000101382 4.2025e-05 0
0.000103187 4.05286e-05 0
0.000103359 4.24605e-05 0
9.87383e-05 4.5447e-05 0
9.99411e-05 4.35161e-05 0
9.744e-05 4.33145e-05 0
0.00010045 3.725e-05 0
0.000101475 3.7375e-05 0
9.70845e-05 4.65215e-05 0
9.52614e-05 4.67664e-05 0
9.61768e-05 4.49944e-05 0
9.9729e-05 3.87704e-05 0
9.78901e-05 3.9598e-05 0
9.85823e-05 3.81492e-05 0
9.62289e-05 3.93709e-05 0
9.74259e-05 3.81279e-05 0
9.7375e-05 3.6875e-05 0
9.63045e-05 3.76631e-05 0
9.58e-05 5e-05 0
9.32e-05 5e-05 0
9.47542e-05 4.8457e-05 0
9.49675e-05 3.85246e-05 0
9.36214e-05 3.89472e-05 0
9.40006e-05 3.74906e-05 0
9.66411e-05 4.12573e-05 0
9.44241e-05 4.07079e-05 0
9.03569e-05 4.24993e-05 0
9.21701e-05 4.02409e-05 0
9.27439e-05 4.27744e-05 0
8.89795e-05 4.09067e-05 0
9.03071e-05 4.0248e-05 0
9.25447e-05 3.77721e-05 0
9.3275e-05 3.6375e-05 0
9.07708e-05 3.87127e-05 0
9.11303e-05 3.70839e-05 0
9.11933e-05 4.55145e-05 0
9.30678e-05 4.73279e-05 0
9.11886e-05 4.82603e-05 0
8.87724e-05 3.88076e-05 0
8.99595e-05 3.75116e-05 0
9.02e-05 3.6e-05 0
8.89241e-05 3.6954e-05 0
8.36977e-05 4.59472e-05 0
8.36223e-05 4.83578e-05 0
8.20467e-05 4.74142e-05 0
8.71227e-05 4.03557e-05 0
8.61e-05 3.55e-05 0
8.68368e-05 3.65714e-05 0
8.5484e-05 3.6588e-05 0
8.47735e-05 4.02845e-05 0
8.23121e-05 4.21599e-05 0
8.26582e-05 3.98147e-05 0
8.46943e-05 4.2454e-05 0
8.38832e-05 3.78613e-05 0
8.35569e-05 3.63808e-05 0
8.44098e-05 3.6291e-05 0
8.5075e-05 3.5375e-05 0
8.51465e-05 4.77163e-05 0
8.3025e-05 3.5125e-05 0
8.22824e-05 3.68659e-05 0
8.1446e-05 3.57362e-05 0
8.05884e-05 3.71794e-05 0
7.53471e-05 4.77524e-05 0
7.38313e-05 4.73927e-05 0
7.39102e-05 4.61526e-05 0
7.9826e-05 3.58588e-05 0
7.88607e-05 3.76287e-05 0
7.81733e-05 3.57987e-05 0
8.16783e-05 3.84471e-05 0
8.07975e-05 4.04095e-05 0
7.52138e-05 4.04775e-05 0
7.67682e-05 4.17043e-05 0
7.49617e-05 4.21803e-05 0
7.52903e-05 3.84008e-05 0
7.38293e-05 3.93136e-05 0
[...]
CELL_DATA 58684
VECTORS velocity DOUBLE
74.0643 0.337327 0
86.28 2.45756e-06 0
86.2548 0.000132875 0
86.2828 0.00077065 0
86.256 -0.00135039 0
86.2884 -0.00243699 0
86.2621 0.00286369 0
77.8646 -0.00259584 0
77.8723 -0.0236755 0
77.9548 -0.00377134 0
78.0517 -0.00660421 0
78.1037 -0.407994 0
77.895 -0.109778 0
78.1782 -0.134524 0
77.8777 -0.185637 0
78.359 -0.17157 0
77.8649 -0.111894 0
78.6925 -0.157083 0
77.9157 -0.317664 0
79.1764 -0.113276 0
77.8788 -0.114154 0
78.6655 -0.368009 0
85.0419 -2.16363 0
77.8563 0.0117785 0
77.854 0.0512297 0
77.8561 0.0250029 0
77.879 0.141083 0
77.872 0.022675 0
77.8775 0.188908 0
77.9534 0.0493701 0
77.8751 0.145015 0
77.9161 0.0323898 0
77.8365 0.144903 0
78.2425 0.163375 0
77.9598 1.13096 0
78.1117 0.0679988 0
77.8876 0.17706 0
78.3125 0.354476 0
86.2899 -0.00266287 0
86.293 -0.000152675 0
86.3008 -0.00314668 0
86.3018 -0.00473758 0
86.3046 -3.61575e-05 0
86.3118 -0.00299864 0
86.3136 -0.00640398 0
86.3143 -0.00510973 0
86.3175 -0.000352805 0
86.3239 -0.00605089 0
86.3239 -0.00646704 0
86.3255 -0.000121986 0
86.3337 -0.00636387 0
86.334 -0.00864683 0
86.3346 -0.00644093 0
86.3369 -0.00065684 0
86.3425 -0.0079817 0
86.3424 -0.00742579 0
86.3435 -0.000461147 0
86.3522 -0.0100338 0
86.3521 -0.0110759 0
86.3529 -0.00687429 0
86.3565 -0.0003796 0
86.3609 -0.0142116 0
86.363 -0.00953454 0
86.3701 -0.00121868 0
86.3732 -0.0157614 0
86.3729 -0.0155118 0
86.3765 -0.01071 0
86.3802 -0.000839899 0
86.3826 -0.0174045 0
86.3864 -0.011399 0
86.3895 -0.000550946 0
86.3939 -0.0195367 0
86.3977 -0.0148525 0
86.4041 -0.022389 0
86.404 -0.000638998 0
86.4094 -0.0168268 0
86.4122 -0.0105122 0
86.4175 -0.00136623 0
86.4225 -0.024293 0
86.4356 -0.0183204 0
86.4247 -0.0199344 0
86.435 -0.00182841 0
86.4412 -0.013019 0
86.4377 -0.0243613 0
86.4583 -0.0163745 0
86.4536 -0.0215146 0
86.4552 -0.0283584 0
86.4638 -0.0357299 0
86.4771 -0.0225233 0
86.4902 -0.0313191 0
86.4715 -0.0275733 0
86.4846 -0.0399752 0
86.4952 -0.0312522 0
86.4948 -0.0299509 0
86.5023 -0.0419624 0
86.526 -0.0372716 0
86.5091 -0.0335532 0
86.5199 -0.0450704 0
86.5356 -0.0507616 0
86.5358 -0.0373448 0
86.5581 -0.0474911 0
86.5406 -0.0414902 0
86.5584 -0.0157391 0
86.5641 -0.051527 0
86.5801 -0.0479209 0
86.5741 -0.0539903 0
86.5779 -0.0136369 0
86.5868 -0.0570975 0
86.6011 -0.064634 0
86.6118 -0.0363411 0
86.6092 -0.0385597 0
86.5971 -0.0528455 0
86.6281 -0.0691903 0
86.6233 -0.0289012 0
86.6546 -0.0622818 0
86.6396 -0.0403647 0
86.6675 -0.00231415 0
86.6626 -0.0701745 0
86.6763 -0.0830343 0
86.7052 -0.0717914 0
86.7201 -0.055611 0
86.6778 -0.0436397 0
86.7136 -0.0826223 0
86.7435 -0.0562117 0
86.7413 -0.0873171 0
86.7159 -0.0326306 0
86.7519 -0.0783062 0
86.7622 -0.0291302 0
86.7657 -0.0915059 0
86.7919 -0.105974 0
86.8203 -0.0636923 0
86.8151 -0.0886987 0
86.7866 -0.0412567 0
86.853 -0.114809 0
86.7973 -0.032567 0
86.8333 -0.114037 0
86.8952 -0.127221 0
86.9067 -0.0895594 0
86.9222 -0.112066 0
86.8841 -0.106721 0
86.9094 -0.116484 0
86.873 -0.0516479 0
86.9514 -0.134421 0
86.9766 -0.147667 0
87.006 -0.0978672 0
86.9287 -0.0734012 0
86.9694 -0.126925 0
86.991 -0.150469 0
86.9507 -0.0299539 0
87.0582 -0.159866 0
87.0719 -0.178828 0
87.109 -0.109994 0
87.0221 -0.0983206 0
87.0836 -0.151075 0
87.1052 -0.178207 0
87.0428 -0.0317081 0
87.1239 -0.206533 0
87.173 -0.221563 0
87.1846 -0.156999 0
87.1813 -0.180967 0
87.2314 -0.165519 0
87.2127 -0.229492 0
87.2099 -0.06078 0
87.2225 -0.215729 0
87.2945 -0.219601 0
87.2651 -0.0707218 0
87.3608 -0.260615 0
87.3868 -0.240587 0
87.3665 -0.152126 0
87.4282 -0.117078 0
87.3658 -0.266516 0
87.4039 -0.294318 0
87.3984 -0.060318 0
87.4746 -0.295841 0
87.5241 -0.304298 0
87.4423 -0.218592 0
87.5058 -0.135523 0
87.5431 -0.182268 0
87.5565 -0.348569 0
87.5896 -0.117268 0
87.6202 -0.323324 0
87.6515 -0.317265 0
87.6781 -0.371212 0
87.6221 -0.00408225 0
87.778 -0.36923 0
87.6596 -0.285343 0
87.7803 -0.256626 0
87.8513 -0.299711 0
87.8275 -0.407841 0
87.8834 -0.412001 0
87.7408 -0.0925554 0
87.9196 -0.398094 0
87.9493 -0.46003 0
87.9617 -0.44287 0
88.0468 -0.101343 0
87.9432 -0.35092 0
88.1183 -0.507019 0
88.162 -0.383172 0
88.0814 -0.322228 0
88.1759 -0.534873 0
88.163 -0.529246 0
88.0362 -0.0909248 0
88.2652 -0.585921 0
88.3016 -0.549289 0
88.4698 -0.105614 0
88.3996 -0.602104 0
88.2435 -0.421758 0
88.4929 -0.382629 0
88.5586 -0.492637 0
88.452 -0.545719 0
88.4814 -0.650518 0
88.5255 -0.233078 0
88.651 -0.623705 0
88.6101 -0.721827 0
88.7986 -0.728927 0
88.7382 -0.0105738 0
88.7448 -0.60128 0
88.8114 -0.75349 0
88.6359 -0.186528 0
88.8753 -0.792482 0
88.9578 -0.454508 0
88.9218 -0.828847 0
89.1134 -0.252911 0
89.0858 -0.709194 0
89.0561 -0.836635 0
88.9762 -0.129519 0
89.1984 -0.862109 0
89.3758 -0.836973 0
89.2155 -0.715776 0
89.2561 -0.429904 0
89.4123 -0.962315 0
89.4039 -0.375972 0
89.5574 -0.0641968 0
89.3497 -0.755591 0
89.5278 -0.949316 0
89.6172 -1.02111 0
89.6253 -0.317371 0
89.7549 -0.877144 0
89.9135 -0.959056 0
89.6961 -0.107624 0
90.0593 -0.929791 0
89.9784 -1.04163 0
89.8275 -0.771687 0
89.879 -0.370201 0
89.994 -0.431611 0
90.1313 -1.04319 0
90.0398 -0.00574935 0
90.2393 -1.11299 0
90.3742 -1.0521 0
90.3308 -1.10974 0
90.2831 -0.237405 0
90.4315 -0.900841 0
90.6842 -0.908038 0
90.2482 -0.00384858 0
90.7779 -1.08089 0
90.952 -0.912442 0
90.5937 -0.66257 0
90.4112 -0.270838 0
90.9506 -1.03336 0
90.5766 -0.335196 0
90.3798 -0.0138566 0
90.8733 -0.688456 0
91.2121 -0.932165 0
91.3774 -0.866474 0
90.5555 -0.0639995 0
91.3224 -0.581429 0
91.4649 -0.769602 0
90.4171 0.036954 0
91.6049 -0.754217 0
91.7913 -0.621975 0
91.4084 -0.200874 0
90.1735 0.0108957 0
91.9475 -0.395211 0
91.0797 0.22156 0
91.3123 0.332339 0
91.819 -0.246871 0
91.5962 0.00893621 0
92.2754 -0.00506294 0
90.297 0.383315 0
92.2604 -0.10708 0
91.8108 0.456088 0
92.4598 0.537081 0
90.2137 0.112291 0
92.4145 1.23589 0
92.1869 1.46347 0
88.8544 0.199348 0
92.6393 0.931337 0
92.5386 1.40538 0
90.2033 1.49328 0
89.955 0.714214 0
91.4817 1.14226 0
92.4376 1.93606 0
89.1031 0.332691 0
91.9493 2.82101 0
92.6153 2.1787 0
92.6289 2.40471 0
88.3493 1.41911 0
90.9789 2.94364 0
92.0036 3.20745 0
88.3311 0.234051 0
91.8205 3.70656 0
91.4728 3.58254 0
90.5169 5.19939 0
86.0717 0.396915 0
91.643 4.90383 0
89.6665 3.53724 0
87.8122 1.56785 0
87.4325 2.9864 0
91.412 5.40689 0
90.2878 5.85015 0
86.5066 0.609342 0
90.3576 6.67362 0
86.2635 0.00255345 0
86.2662 0.000151958 0
86.2728 0.0025085 0
86.2734 0.00456753 0
86.2758 4.18008e-06 0
86.2828 0.00286847 0
86.2843 0.00609859 0
86.285 0.00493627 0
86.2879 0.000344446 0
86.2937 0.00556964 0
86.2938 0.00554675 0
86.2949 8.95721e-05 0
86.3026 0.00614402 0
86.3028 0.00831017 0
86.3033 0.00618823 0
86.3054 0.000632014 0
86.3109 0.00803389 0
86.3108 0.0075919 0
86.3119 0.000458585 0
86.3205 0.00968839 0
86.3204 0.0108536 0
86.3286 0.0140406 0
86.3213 0.00670978 0
86.3319 0.00800224 0
86.3393 0.0133005 0
86.3313 0.00967014 0
86.3417 0.0152927 0
86.3452 0.0106882 0
86.3516 0.0169408 0
86.3431 0.00952548 0
86.3551 0.0117259 0
86.363 0.0192648 0
86.3549 0.00965604 0
86.3734 0.0226033 0
86.3738 0.0226441 0
86.3774 0.015851 0
86.3673 0.0112786 0
86.3787 0.017159 0
86.3896 0.0161322 0
86.3815 0.0107767 0
86.4009 0.029398 0
86.3965 0.0123301 0
86.406 0.0186642 0
86.3961 0.0149238 0
86.4083 0.0247478 0
86.4264 0.0286554 0
86.4289 0.0167096 0
86.4215 0.0266171 0
86.4388 0.0300755 0
86.4399 0.0351572 0
86.454 0.0171831 0
86.4485 0.0227216 0
86.4616 0.0315613 0
86.4739 0.0444606 0
86.4741 0.021296 0
86.4817 0.0337045 0
86.4908 0.0468974 0
86.4953 0.0266437 0
86.4803 0.0336449 0
86.5082 0.0513771 0
86.5082 0.0506626 0
86.5113 0.0317598 0
86.5207 0.0226924 0
86.5305 0.0473733 0
86.4836 0.0136661 0
86.547 0.0542574 0
86.5744 0.065894 0
86.5579 0.0554638 0
86.5429 0.0322212 0
86.5835 0.0668303 0
86.5896 0.0581634 0
86.5989 0.029104 0
86.5717 0.0538602 0
86.6076 0.0617682 0
86.6224 0.0707142 0
86.5753 0.016556 0
86.6103 0.0511506 0
86.6525 0.0829166 0
86.6173 0.0415422 0
86.6617 0.0714644 0
86.6886 0.0869782 0
86.6629 0.0638401 0
86.6779 0.0260998 0
86.6958 0.0770461 0
86.713 0.0880305 0
86.69 0.0216949 0
86.7352 0.0975383 0
86.6996 0.0721512 0
86.7521 0.0799216 0
86.7147 0.0560306 0
86.7655 0.106064 0
86.8191 0.127489 0
86.7738 0.0322973 0
86.7761 0.0872902 0
86.8444 0.134913 0
86.818 0.0976198 0
86.7638 0.0404048 0
86.8582 0.12735 0
86.8778 0.13309 0
86.8327 0.0330633 0
86.8746 0.0577799 0
86.9058 0.116751 0
86.9253 0.155239 0
86.8541 0.08209 0
86.9533 0.148703 0
86.9738 0.16096 0
86.9691 0.0541297 0
86.9493 0.0976073 0
87.0188 0.179523 0
87.0119 0.152599 0
86.9123 0.0495471 0
87.0357 0.171698 0
87.0822 0.18401 0
87.0528 0.0721386 0
87.0498 0.157691 0
87.1406 0.218393 0
87.1235 0.168204 0
86.9991 0.054151 0
87.1627 0.204421 0
87.2287 0.248129 0
87.109 0.0707668 0
87.2123 0.197626 0
87.1877 0.0918614 0
87.2532 0.206589 0
87.167 0.117821 0
87.2872 0.262279 0
87.3421 0.261727 0
87.2419 0.0712661 0
87.3308 0.255987 0
87.4083 0.295036 0
87.3563 0.0753529 0
87.3001 0.216121 0
87.395 0.251287 0
87.4554 0.297479 0
87.3318 0.0458922 0
87.4643 0.271124 0
87.5674 0.351642 0
87.5431 0.294117 0
87.4748 0.0890647 0
87.6163 0.306493 0
87.4277 0.114944 0
87.4657 0.260273 0
87.6087 0.340048 0
87.7182 0.383506 0
87.7274 0.392843 0
87.4449 0.00716528 0
87.8258 0.446679 0
87.8371 0.434559 0
87.8579 0.382449 0
87.7884 0.188181 0
87.8939 0.202323 0
87.8759 0.428139 0
87.6398 0.116776 0
87.9981 0.480706 0
87.9871 0.47251 0
87.9926 0.424561 0
87.8785 0.122909 0
88.0739 0.470267 0
88.2027 0.585945 0
88.0487 0.219864 0
87.9974 0.233513 0
88.1568 0.473582 0
88.3261 0.606078 0
87.9152 0.14528 0
88.3664 0.641404 0
88.4046 0.623078 0
88.2061 0.122031 0
88.5463 0.711078 0
88.58 0.681692 0
88.6449 0.585916 0
88.4166 0.258824 0
88.3882 0.293017 0
88.5611 0.657976 0
88.2886 0.191044 0
88.7312 0.782945 0
88.7843 0.737465 0
88.78 0.678958 0
88.5041 0.103359 0
88.959 0.798785 0
88.9764 0.815431 0
88.8086 0.458104 0
89.0677 0.641416 0
88.8246 0.372655 0
89.0311 0.781594 0
88.7088 0.236516 0
89.1921 0.907787 0
89.2174 0.876695 0
88.747 0.18844 0
89.2851 0.806575 0
89.4733 0.926883 0
89.3831 0.90679 0
89.2557 0.211324 0
89.6859 0.967217 0
89.7312 1.03276 0
89.2164 0.628719 0
89.6147 0.765565 0
89.2734 0.382852 0
89.9281 1.08434 0
89.4468 0.117918 0
89.9924 1.05204 0
89.9852 0.995616 0
89.2634 0.0943178 0
89.9128 0.901282 0
90.3128 1.06136 0
90.4062 1.06864 0
89.8517 0.268422 0
90.4805 1.04044 0
90.5303 1.10944 0
89.8359 0.679869 0
90.5345 0.72748 0
90.0114 0.259526 0
90.6991 1.10457 0
90.0362 0.0955741 0
90.8469 1.02719 0
90.9369 1.00975 0
89.8625 0.0692018 0
90.7532 0.83427 0
91.2296 0.933729 0
91.3937 0.86925 0
90.3026 0.165131 0
91.2277 0.813379 0
91.5338 0.816472 0
90.8471 0.707805 0
91.3198 0.393336 0
90.3871 0.100751 0
91.2997 0.730913 0
90.4016 0.0356843 0
91.7818 0.7071 0
91.8694 0.560335 0
90.2962 0.0368717 0
91.5718 0.25651 0
92.0212 0.27543 0
92.2112 0.139767 0
90.4064 -0.103829 0
92.3026 -0.0648373 0
92.3482 -0.199796 0
90.5566 -0.28272 0
92.3641 -0.232139 0
91.5665 -0.668415 0
90.8275 -0.110233 0
90.6325 -0.011675 0
92.501 -0.524122 0
92.2626 -0.91367 0
92.692 -1.09515 0
90.2968 -0.00735437 0
91.9762 -1.35938 0
92.6955 -1.82776 0
90.2591 -0.128626 0
91.8098 -1.32466 0
92.6736 -2.36515 0
91.2583 -1.78604 0
90.2397 -0.669052 0
92.4842 -2.71125 0
92.3471 -3.00271 0
91.2115 -1.13639 0
90.6713 -3.15818 0
88.6607 -2.59859 0
91.9904 -3.03602 0
89.0617 -0.409392 0
91.9791 -3.98518 0
89.4423 7.26926 0
90.1655 6.50104 0
84.8244 1.9224 0
89.3401 7.22536 0
87.1239 6.61146 0
88.6851 7.85472 0
85.4074 0.756202 0
87.7157 8.05592 0
86.5552 7.92791 0
84.1764 0.96064 0
86.6265 8.45291 0
91.8917 -4.40156 0
89.3019 -0.254289 0
91.6292 -4.74411 0
90.4019 -5.13746 0
89.8502 -4.42406 0
88.4241 -0.269608 0
90.6426 -5.726 0
85.3404 7.72127 0
89.9984 -6.99659 0
88.18 -1.40167 0
89.679 -6.7624 0
88.8227 -7.72263 0
83.0363 2.35849 0
88.3907 -7.57814 0
89.5876 -4.23609 0
88.8786 -6.86799 0
87.0344 -5.08346 0
86.1002 -0.836768 0
87.9495 -6.97341 0
87.1658 -7.38038 0
84.7209 8.14752 0
87.235 -7.39252 0
86.924 -0.454671 0
86.2162 -7.74268 0
85.7065 -8.44559 0
85.429 -0.563007 0
84.6273 -8.58842 0
85.1327 -6.30515 0
83.2915 -0.652534 0
83.6238 -8.73998 0
83.7028 -4.84721 0
85.3938 -3.81965 0
84.1666 -7.48322 0
83.0684 -7.83237 0
85.7066 4.38166 0
82.1456 0.528759 0
85.1201 2.93025 0
83.7934 -0.0749995 0
82.5243 -8.49563 0
84.3495 7.71729 0
81.877 0.383397 0
83.7875 6.56501 0
81.6676 -8.36011 0
83.3699 -1.71016 0
80.9774 -6.10381 0
83.7727 8.79515 0
80.7817 2.01847 0
83.6745 8.72073 0
81.4864 7.27252 0
81.0668 0.410853 0
82.106 7.64726 0
81.5764 -6.35063 0
82.8897 -0.471454 0
80.822 -8.48797 0
80.8424 -8.25551 0
82.474 8.21261 0
80.5729 7.82957 0
80.3899 0.0417272 0
81.6206 8.08301 0
79.8007 5.0641 0
80.3854 2.27992 0
79.9083 -8.43682 0
80.8507 -1.09359 0
80.2399 -8.31155 0
79.4497 8.28013 0
79.2921 -7.70837 0
79.9981 -1.07473 0
79.62 -3.3889 0
78.0427 -7.40465 0
81.0614 -4.095 0
77.9046 -7.16204 0
79.5101 -0.290157 0
76.9958 -6.84248 0
79.1729 2.857 0
79.7747 0.46025 0
79.0321 6.95341 0
79.1831 0.1174 0
78.8218 8.15778 0
78.5429 7.65598 0
78.8749 0.185759 0
77.7941 6.70126 0
78.6633 0.13363 0
78.3792 -6.40127 0
79.5078 -0.574706 0
79.5986 6.02665 0
77.8713 0.734548 0
77.3514 6.29252 0
76.8834 -6.80303 0
79.6199 -0.228982 0
75.2651 -5.81812 0
77.8645 -0.441055 0
76.0866 -5.72564 0
78.4606 2.54337 0
77.8532 0.120972 0
79.1032 -5.20987 0
77.8545 -0.112994 0
75.3927 -5.39027 0
76.7669 5.67773 0
76.8037 -4.25441 0
77.8652 -0.241477 0
75.7032 -4.61792 0
77.8168 3.13504 0
75.6781 1.98946 0
76.276 4.90983 0
77.5942 -0.983314 0
75.5435 -5.11696 0
77.8014 0.402641 0
76.1834 6.62479 0
77.6041 -2.37276 0
77.8555 -0.0841316 0
75.2164 -4.61614 0
75.9183 5.91854 0
77.8077 0.716724 0
75.8843 4.62637 0
75.6043 4.56561 0
77.7941 0.381839 0
74.8122 4.06666 0
74.3616 -4.1458 0
77.8298 -0.29453 0
74.0614 -4.1384 0
76.4634 -1.97153 0
77.847 -0.200143 0
73.4403 -2.82114 0
74.8672 5.05892 0
77.7285 0.619428 0
76.1277 3.24163 0
74.0543 -2.56218 0
77.7325 -0.312442 0
73.4036 -2.33379 0
73.7582 3.723 0
77.7412 0.264361 0
74.1609 3.50636 0
74.4632 2.86077 0
77.8529 0.0343135 0
73.6269 3.04706 0
74.7576 -1.50889 0
77.6678 -0.539393 0
74.0436 -1.32989 0
72.8632 -0.846186 0
76.9761 -0.922082 0
72.9132 -0.716611 0
76.6742 0.957939 0
77.7791 0.0792199 0
75.7442 2.42674 0
73.408 2.45466 0
77.6337 0.0590069 0
72.9855 1.55028 0
77.3378 -0.234848 0
77.8357 -0.112656 0
72.912 -0.235659 0
73.4389 -0.0925939 0
77.8006 -0.0659458 0
75.6727 0.30689 0
73.6064 0.525323 0
77.817 -0.0618627 0
76.9883 -5.64024 0
77.8935 -0.432065 0
77.8387 0.1336 0
77.8043 6.86185 0
78.7366 -7.71407 0
81.7863 -0.94165 0
80.2244 0.993882 0
81.3846 8.58745 0
77.7818 0.280028 0
74.3163 4.84076 0
73.804 -2.82897 0
77.7994 -0.202638 0
77.8405 -0.573452 0
77.3892 -3.65859 0
77.8933 0.80096 0
77.8977 0.198404 0
77.7901 -0.000268221 0
73.4805 2.04843 0
79.1411 0.465162 0
78.2666 1.57231 0
78.5815 -1.37125 0
80.0435 -0.688732 0
85.5161 -1.26707 0
85.1003 -8.43393 0
86.9762 8.05137 0
85.0571 0.467979 0
77.6399 1.66078 0
79.3681 7.97497 0
78.313 -7.05923 0
79.0774 -2.30932 0
76.7804 -1.45748 0
74.444 -0.219476 0
75.9568 5.81297 0
77.9531 1.88643 0
77.7957 -1.78686 0
74.5872 -4.62138 0
91.3814 -5.37941 0
88.1128 -0.661189 0
87.6942 0.791391 0
91.8183 4.48557 0
77.8881 -0.814435 0
77.87 -0.0436986 0
77.855 0.148659 0
78.8058 0.754754 0
82.8322 0.734616 0
82.4646 4.09363 0
80.9627 -1.98425 0
84.0066 -1.74016 0
81.3953 4.88311 0
84.2834 8.27941 0
83.1228 -8.65667 0
82.2799 -1.91488 0
86.2755 1.60701 0
87.355 5.01507 0
85.9283 -2.78397 0
87.0617 -0.0429999 0
90.2072 -0.256463 0
92.6552 -1.34124 0
92.4933 0.548967 0
89.4096 0.0293701 0
90.3691 0.00201862 0
91.912 0.540604 0
91.6908 -0.527264 0
90.518 0.0437404 0
78.8619 -1.44416 0
78.3443 -0.573114 0
78.2518 1.23497 0
79.0279 0.946979 0
78.1031 1.22325 0
77.8644 0.239072 0
77.8517 -0.107587 0
78.0377 -1.12428 0
89.1066 0.956329 0
90.3345 1.8905 0
89.4265 -1.1497 0
89.627 -0.171812 0
75.8075 -0.958189 0
77.8183 -0.155381 0
77.3834 -0.439711 0
77.8294 -0.373068 0
77.8346 0.206231 0
77.7937 0.967033 0
91.0107 0.954249 0
90.1728 0.149603 0
90.3204 -0.00324458 0
90.7409 -1.03666 0
81.4205 -0.0404889 0
80.6702 -2.81767 0
81.7131 1.79985 0
80.4459 0.447407 0
77.6342 4.03372 0
77.0906 7.29711 0
76.8528 -6.24353 0
78.1152 -3.2182 0
78.6248 -2.10596 0
77.3841 -2.2264 0
77.7146 4.62702 0
78.066 2.22129 0
90.526 0.056546 0
90.2624 0.146352 0
90.4404 -0.0533723 0
91.4138 0.0716938 0
79.5129 -5.40892 0
80.585 -5.24653 0
80.185 4.62868 0
80.6869 8.50727 0
78.878 -3.97002 0
80.0416 -2.30908 0
79.8734 3.11047 0
79.0819 1.53268 0
90.2458 1.12896 0
89.6768 0.138698 0
89.9134 -0.00991226 0
89.8255 -1.01719 0
77.1924 1.01164 0
77.8296 0.0305623 0
90.3877 -0.052146 0
91.0394 -0.331154 0
90.7483 0.232839 0
90.2197 0.0362568 0
78.6804 -0.954101 0
78.2262 -1.32913 0
78.9654 1.73762 0
78.1298 0.735584 0
77.8759 -0.146619 0
78.0641 -0.696771 0
77.916 0.315288 0
77.852 0.13643 0
73.9193 1.70939 0
76.8124 1.52172 0
86.679 -3.14617 0
89.9905 -6.34436 0
90.9426 5.80121 0
86.392 2.27173 0
76.6387 -2.30563 0
74.5502 -2.89222 0
88.9994 0.153985 0
89.2804 0.873347 0
88.2903 0.0759262 0
88.9253 0.836872 0
89.2971 -0.852493 0
89.1296 -0.138823 0
88.6828 -0.702035 0
88.5944 -0.0127639 0
90.08 -0.209128 0
90.1989 -0.605142 0
90.0435 0.381083 0
89.7994 0.00666495 0
77.8346 0.180047 0
77.609 0.537408 0
76.31 0.452357 0
74.0161 0.843906 0
77.7446 -0.248111 0
77.8217 -0.17047 0
77.2814 0.275477 0
77.1968 -0.747172 0
92.4836 -2.76516 0
89.3548 -1.75469 0
90.3309 2.23048 0
92.6419 1.63897 0
77.9663 -0.0642672 0
78.0488 -0.366283 0
77.8717 0.0511224 0
78.2088 0.260458 0
89.4838 -0.201912 0
89.5062 -0.525528 0
89.5299 0.350324 0
89.136 0.113614 0
88.1051 0.168873 0
88.2931 0.530688 0
88.3176 -0.621635 0
88.1989 -0.151337 0
78.3502 -0.897515 0
79.2031 -2.12731 0
78.6704 1.60852 0
78.3233 1.27054 0
78.9629 2.87308 0
77.4427 1.84684 0
77.9855 -1.91882 0
78.6027 -2.78475 0
90.8822 -0.550613 0
91.8347 0.264609 0
92.0068 -0.255746 0
91.3043 0.594034 0
77.588 -1.14501 0
77.6963 -1.36177 0
77.7371 1.0799 0
77.2127 1.30239 0
88.1219 0.553847 0
87.8191 0.167069 0
87.8822 -0.102925 0
88.0588 -0.472503 0
84.8156 4.25646 0
86.7936 7.11072 0
86.288 -8.37241 0
85.8432 -3.33818 0
75.0243 -3.41364 0
77.3583 -3.50453 0
84.4436 -3.05385 0
85.0743 -1.09468 0
83.4601 0.451927 0
86.7227 3.10283 0
74.6046 4.61091 0
76.5484 2.72513 0
88.8373 -0.0513123 0
89.0168 -0.539584 0
88.8948 0.358079 0
88.8029 0.0976001 0
88.5426 -0.369856 0
88.3265 -1.51616 0
88.8752 2.09026 0
87.9045 0.272256 0
82.8412 1.39196 0
81.1405 0.349102 0
82.2362 -0.33391 0
82.8767 -3.10167 0
90.7079 0.304237 0
90.9946 0.825104 0
91.1547 -0.899296 0
91.0417 -0.035223 0
81.8881 -3.82048 0
82.9654 -1.83246 0
82.1981 2.70235 0
84.7009 5.96985 0
87.7017 0.340236 0
87.5715 0.0647207 0
87.7536 -0.101412 0
87.6897 -0.355412 0
88.3086 -0.185872 0
88.4761 -0.00823948 0
88.4485 0.101364 0
88.2787 0.436955 0
79.7271 0.495198 0
79.4918 1.299 0
79.7399 -1.14464 0
80.5579 -0.316046 0
81.2 2.81702 0
79.6377 1.94381 0
79.0255 -2.8268 0
78.2221 -2.85283 0
90.2442 -0.489408 0
89.9954 -0.282025 0
89.8182 0.379999 0
90.7479 0.639392 0
79.6069 3.83507 0
80.1157 2.56047 0
79.1268 -0.822323 0
78.9677 -0.291937 0
78.8179 0.264757 0
79.4957 0.886769 0
76.4299 -0.871703 0
77.4219 -1.34393 0
91.8569 -3.66104 0
89.4078 -2.07302 0
88.8785 3.75149 0
92.2445 3.72637 0
77.8252 -0.864824 0
77.8731 -0.141202 0
77.8078 0.200199 0
77.8989 0.843197 0
78.1461 0.0876052 0
78.1624 0.623482 0
78.3032 -0.344056 0
78.4387 -0.0203726 0
75.2668 -0.267077 0
72.9281 0.151069 0
84.8172 3.21331 0
88.8329 2.9756 0
87.5384 -2.51153 0
88.1363 -4.9655 0
77.447 2.06058 0
77.0235 1.14755 0
77.8539 -0.0248345 0
77.6054 -0.0488564 0
80.121 6.81148 0
78.0932 4.04439 0
79.7947 -4.28553 0
78.7867 -8.07703 0
77.2845 0.784659 0
77.732 0.424545 0
90.0795 0.507286 0
90.4354 1.10777 0
90.1304 -1.01433 0
90.0576 -0.196413 0
87.8976 -0.122841 0
88.1129 -0.082408 0
88.0864 0.070687 0
87.9808 0.410119 0
92.3931 0.464505 0
91.2532 1.39776 0
91.3009 -0.575723 0
92.5239 -0.72248 0