# vtk DataFile Version 3.0
Unstructured Grid for Triangles
ASCII
DATASET UNSTRUCTURED_GRID
POINTS 29612 DOUBLE
-2.72397e-05 1.23686e-06 0
-2.95789e-05 9.5838e-07 0
-2.77865e-05 -3.1235e-07 0
0.0002024 5e-05 0
0.000203975 4.9875e-05 0
0.000205 5e-05 0
0.000203975 -4.9875e-05 0
0.0002024 -5e-05 0
0.000205 -5e-05 0
0.00020295 4.975e-05 0
0.00020295 -4.975e-05 0
0.000201925 4.9625e-05 0
0.000201925 -4.9625e-05 0
-5.29747e-05 -4.79887e-05 0
-5.5e-05 -5e-05 0
-5.24e-05 -5e-05 0
-5.05983e-05 -4.84325e-05 0
-4.98e-05 -5e-05 0
-4.72e-05 -5e-05 0
-4.83864e-05 -4.87761e-05 0
-4.46e-05 -5e-05 0
-4.59e-05 -4.84239e-05 0
-4.29453e-05 -4.24878e-05 0
-4.47486e-05 -4.20717e-05 0
-4.41829e-05 -4.36609e-05 0
-5.12578e-05 -4.62101e-05 0
-4.93077e-05 -4.53594e-05 0
-5.0706e-05 -4.39006e-05 0
-4.19243e-05 -4.77545e-05 0
-4.40307e-05 -4.71837e-05 0
-4.3691e-05 -4.86724e-05 0
-5.16129e-05 -4.20948e-05 0
-4.95355e-05 -4.15432e-05 0
-5.11646e-05 -4.0128e-05 0
-3.94697e-05 -4.81197e-05 0
-4.06302e-05 -4.55143e-05 0
-5.37257e-05 -3.88197e-05 0
-5.31099e-05 -4.07297e-05 0
-5.23982e-05 -3.88328e-05 0
-3.70063e-05 -4.72956e-05 0
-3.68e-05 -5e-05 0
-3.5308e-05 -4.85302e-05 0
-5.072e-05 -3.7867e-05 0
-4.85506e-05 -3.83975e-05 0
-4.90949e-05 -3.59622e-05 0
-3.37127e-05 -4.84331e-05 0
-3.16e-05 -5e-05 0
-3.26495e-05 -4.7415e-05 0
-5.5e-05 -3.5e-05 0
-5.31201e-05 -3.70361e-05 0
-5.28367e-05 -3.46817e-05 0
-3.63898e-05 -4.48809e-05 0
-3.83315e-05 -4.60336e-05 0
-3.26269e-06 -4.15503e-05 0
-5.99662e-06 -4.09556e-05 0
-5.46944e-06 -4.29488e-05 0
-5.29747e-05 4.79887e-05 0
-5.5e-05 5e-05 0
-5.5e-05 4.75e-05 0
-5.5e-05 4.5e-05 0
-5.34834e-05 4.29171e-05 0
-5.26943e-05 4.42611e-05 0
-5.34026e-05 4.60176e-05 0
-5.31099e-05 4.07297e-05 0
-5.11672e-05 4.01178e-05 0
-5.16129e-05 4.20948e-05 0
-5.24e-05 5e-05 0
-5.05983e-05 4.84325e-05 0
-5.31201e-05 3.70361e-05 0
-5.072e-05 3.7867e-05 0
-5.23982e-05 3.88328e-05 0
-4.8341e-05 4.69132e-05 0
-4.83679e-05 4.87539e-05 0
-5.28367e-05 3.46817e-05 0
-5.5e-05 3.25e-05 0
-5.25657e-05 3.28474e-05 0
-4.98e-05 5e-05 0
-5.30382e-05 3.125e-05 0
-4.19243e-05 4.77545e-05 0
-4.40015e-05 4.7335e-05 0
-4.25917e-05 4.63678e-05 0
-4.35138e-05 2.62661e-05 0
-4.14982e-05 2.74462e-05 0
-4.35654e-05 2.85217e-05 0
-4.59e-05 4.84239e-05 0
-4.36852e-05 4.87027e-05 0
-4.46e-05 5e-05 0
-5.33308e-05 2.92503e-05 0
-5.5e-05 2.75e-05 0
-5.23377e-05 2.76953e-05 0
-4.25282e-05 4.46352e-05 0
-4.09368e-05 4.35728e-05 0
-4.06302e-05 4.55143e-05 0
0.0002009 4.95e-05 0
0.0001998 5e-05 0
0.000199875 4.9375e-05 0
0.00019885 4.925e-05 0
0.0001972 5e-05 0
0.000197825 4.9125e-05 0
0.0001968 4.9e-05 0
0.000195775 4.8875e-05 0
0.0001946 5e-05 0
0.00019475 4.875e-05 0
0.000193725 4.8625e-05 0
0.000192 5e-05 0
0.0001927 4.85e-05 0
0.000191675 4.8375e-05 0
0.00019065 4.825e-05 0
0.0001894 5e-05 0
0.000189625 4.8125e-05 0
0.0001886 4.8e-05 0
0.0001868 5e-05 0
0.000187575 4.7875e-05 0
0.00018655 4.775e-05 0
0.000185515 4.8575e-05 0
0.0001842 5e-05 0
0.0001845 4.75e-05 0
0.000185525 4.7625e-05 0
0.000182564 4.829e-05 0
0.0001816 5e-05 0
0.00018245 4.725e-05 0
0.000183475 4.7375e-05 0
0.000181425 4.7125e-05 0
0.000180295 4.82657e-05 0
0.000179 5e-05 0
0.000179375 4.6875e-05 0
0.0001804 4.7e-05 0
0.000178168 4.80619e-05 0
0.0001764 5e-05 0
0.000177325 4.6625e-05 0
0.00017835 4.675e-05 0
0.000176428 4.76631e-05 0
0.0001763 4.65e-05 0
0.0001738 5e-05 0
0.0001751 4.84164e-05 0
0.000175275 4.6375e-05 0
0.000174025 4.75632e-05 0
0.0001712 5e-05 0
0.000172615 4.78449e-05 0
0.0001722 4.6e-05 0
0.000173225 4.6125e-05 0
0.00017015 4.575e-05 0
0.000171243 4.7381e-05 0
0.000169554 4.79999e-05 0
0.0001686 5e-05 0
0.000167507 4.79751e-05 0
0.000168498 4.64861e-05 0
0.000166 5e-05 0
0.00016558 4.71459e-05 0
0.000167135 4.62887e-05 0
0.0001681 4.55e-05 0
0.00016605 4.525e-05 0
0.000167075 4.5375e-05 0
0.000164059 4.61599e-05 0
0.00016394 4.79552e-05 0
0.000162881 4.6615e-05 0
0.000162975 4.4875e-05 0
0.000165025 4.5125e-05 0
0.000164 4.5e-05 0
0.000161754 4.58641e-05 0
0.000161722 4.78101e-05 0
0.000159956 4.58294e-05 0
0.000160925 4.4625e-05 0
0.00016195 4.475e-05 0
0.000157667 4.60322e-05 0
0.000158875 4.4375e-05 0
0.000159194 4.80155e-05 0
0.0001599 4.45e-05 0
0.00015785 4.425e-05 0
0.000155808 4.56757e-05 0
0.000155647 4.76701e-05 0
0.000154059 4.66642e-05 0
0.000153756 4.50083e-05 0
0.000154839 4.50446e-05 0
0.000156825 4.4125e-05 0
0.000151954 4.80508e-05 0
0.000154052 4.8477e-05 0
0.000153 5e-05 0
0.000154775 4.3875e-05 0
0.000152142 4.56625e-05 0
0.000152821 4.45753e-05 0
0.00015375 4.375e-05 0
0.0001504 5e-05 0
0.000149644 4.85168e-05 0
0.000151787 4.43178e-05 0
0.000152725 4.3625e-05 0
0.000150675 4.3375e-05 0
0.0001517 4.35e-05 0
0.000148119 4.50887e-05 0
0.000148072 4.75757e-05 0
0.000146584 4.63516e-05 0
0.000150008 4.6396e-05 0
0.000149351 4.4543e-05 0
0.00015061 4.46252e-05 0
0.0001476 4.3e-05 0
0.000148625 4.3125e-05 0
0.000146492 4.82975e-05 0
0.000144888 4.73562e-05 0
0.000146676 4.44259e-05 0
0.000145255 4.53656e-05 0
0.000145652 4.38669e-05 0
0.000141401 4.79821e-05 0
0.0001426 5e-05 0
0.00014 5e-05 0
0.000144374 4.38862e-05 0
0.00014555 4.275e-05 0
0.0001435 4.25e-05 0
0.000144525 4.2625e-05 0
0.000142746 4.38121e-05 0
0.000141288 4.43191e-05 0
0.000141707 4.32778e-05 0
0.00013921 4.38992e-05 0
0.000140355 4.5932e-05 0
0.000138302 4.5922e-05 0
0.000142912 4.58869e-05 0
0.000140592 4.30037e-05 0
0.00014145 4.225e-05 0
0.000136458 4.5869e-05 0
0.000137106 4.4063e-05 0
0.0001394 4.2e-05 0
0.000138259 4.28915e-05 0
0.000137484 4.77094e-05 0
0.000139166 4.78902e-05 0
0.00013586 4.78984e-05 0
0.000133449 4.78649e-05 0
0.000134717 4.61848e-05 0
0.000137256 4.25134e-05 0
0.000135323 4.24541e-05 0
0.000136325 4.1625e-05 0
0.000136122 4.2876e-05 0
0.000131206 4.47284e-05 0
0.000133168 4.56738e-05 0
0.000131773 4.65243e-05 0
0.000134756 4.40343e-05 0
0.000132747 4.36463e-05 0
0.000133483 4.26786e-05 0
0.000131081 4.1867e-05 0
0.000132382 4.22815e-05 0
0.000131507 4.3122e-05 0
0.000131059 4.80123e-05 0
0.00013325 4.125e-05 0
0.00012915 4.075e-05 0
0.00012982 4.18199e-05 0
0.000128915 4.26216e-05 0
0.000126366 4.47574e-05 0
0.000127331 4.30908e-05 0
0.000128781 4.44872e-05 0
0.000125336 4.28376e-05 0
0.000130218 4.31077e-05 0
0.000127894 4.16344e-05 0
0.000124774 4.69608e-05 0
0.000127668 4.64148e-05 0
0.000126591 4.8331e-05 0
0.000126722 4.18415e-05 0
0.000125768 4.11931e-05 0
0.000124326 4.13546e-05 0
0.00012505 4.025e-05 0
0.000122408 4.50118e-05 0
0.000120276 4.47432e-05 0
0.00012139 4.32235e-05 0
0.000124336 4.44132e-05 0
0.000123056 4.27595e-05 0
0.000122977 4.09049e-05 0
0.00012185 4.69217e-05 0
0.000122676 4.85947e-05 0
0.000120525 4.86094e-05 0
0.000121479 4.13153e-05 0
0.000119547 4.24221e-05 0
0.000120249 4.07448e-05 0
0.000119925 3.9625e-05 0
0.000119346 4.06114e-05 0
0.000117479 4.47279e-05 0
0.000114726 4.45259e-05 0
0.00011571 4.27814e-05 0
0.000119443 4.66611e-05 0
0.000117447 4.21596e-05 0
0.000118421 4.0752e-05 0
0.000117409 4.04437e-05 0
0.000116775 4.70073e-05 0
0.0001179 4.855e-05 0
0.000115473 4.84802e-05 0
0.00011685 3.925e-05 0
0.000117875 3.9375e-05 0
0.000115454 4.00551e-05 0
0.0001148 3.9e-05 0
0.000115825 3.9125e-05 0
0.000111704 4.23398e-05 0
0.000113786 4.26731e-05 0
0.000112589 4.43871e-05 0
0.000113234 4.06671e-05 0
0.000114754 4.13371e-05 0
0.0001106 4.42326e-05 0
0.000109703 4.24261e-05 0
0.00011275 3.875e-05 0
0.000113775 3.8875e-05 0
0.000110211 4.80875e-05 0
0.000108244 4.71951e-05 0
0.000109312 4.58413e-05 0
0.000111755 3.99116e-05 0
0.00010944 3.92972e-05 0
0.000110415 4.05876e-05 0
0.000108839 4.07536e-05 0
0.000106472 4.76905e-05 0
0.000107274 4.57868e-05 0
0.000108011 3.92415e-05 0
0.000106885 4.04365e-05 0
0.000106625 3.88708e-05 0
0.000105286 4.19254e-05 0
0.000105055 3.95469e-05 0
0.000104215 4.39764e-05 0
0.000106346 4.40629e-05 0
0.000100945 4.51249e-05 0
0.000102825 4.5614e-05 0
0.000101189 4.68452e-05 0
0.000107625 3.8125e-05 0
0.000105575 3.7875e-05 0
0.0001066 3.8e-05 0
0.000103352 4.76905e-05 0
0.000101803 4.8465e-05 0
0.000103685 3.89398e-05 0
0.00010245 3.8825e-05 0
0.000103525 3.7625e-05 0
0.000101092 3.99779e-05 0
0.000101267 3.82619e-05 0
0.000101382 4.2025e-05 0
0.000103187 4.05286e-05 0
0.000103359 4.24605e-05 0
9.87383e-05 4.5447e-05 0
9.99411e-05 4.35161e-05 0
9.744e-05 4.33145e-05 0
0.00010045 3.725e-05 0
0.000101475 3.7375e-05 0
9.70845e-05 4.65215e-05 0
9.52614e-05 4.67664e-05 0
9.61768e-05 4.49944e-05 0
9.9729e-05 3.87704e-05 0
9.78901e-05 3.9598e-05 0
9.85823e-05 3.81492e-05 0
9.62289e-05 3.93709e-05 0
9.74259e-05 3.81279e-05 0
9.7375e-05 3.6875e-05 0
9.63045e-05 3.76631e-05 0
9.58e-05 5e-05 0
9.32e-05 5e-05 0
9.47542e-05 4.8457e-05 0
9.49675e-05 3.85246e-05 0
9.36214e-05 3.89472e-05 0
9.40006e-05 3.74906e-05 0
9.66411e-05 4.12573e-05 0
9.44241e-05 4.07079e-05 0
9.03569e-05 4.24993e-05 0
9.21701e-05 4.02409e-05 0
9.27439e-05 4.27744e-05 0
8.89795e-05 4.09067e-05 0
9.03071e-05 4.0248e-05 0
9.25447e-05 3.77721e-05 0
9.3275e-05 3.6375e-05 0
9.07708e-05 3.87127e-05 0
9.11303e-05 3.70839e-05 0
9.11933e-05 4.55145e-05 0
9.30678e-05 4.73279e-05 0
9.11886e-05 4.82603e-05 0
8.87724e-05 3.88076e-05 0
8.99595e-05 3.75116e-05 0
9.02e-05 3.6e-05 0
8.89241e-05 3.6954e-05 0
8.36977e-05 4.59472e-05 0
8.36223e-05 4.83578e-05 0
8.20467e-05 4.74142e-05 0
8.71227e-05 4.03557e-05 0
8.61e-05 3.55e-05 0
8.68368e-05 3.65714e-05 0
8.5484e-05 3.6588e-05 0
8.47735e-05 4.02845e-05 0
8.23121e-05 4.21599e-05 0
8.26582e-05 3.98147e-05 0
8.46943e-05 4.2454e-05 0
8.38832e-05 3.78613e-05 0
8.35569e-05 3.63808e-05 0
8.44098e-05 3.6291e-05 0
8.5075e-05 3.5375e-05 0
8.51465e-05 4.77163e-05 0
8.3025e-05 3.5125e-05 0
8.22824e-05 3.68659e-05 0
8.1446e-05 3.57362e-05 0
8.05884e-05 3.71794e-05 0
7.53471e-05 4.77524e-05 0
7.38313e-05 4.73927e-05 0
7.39102e-05 4.61526e-05 0
7.9826e-05 3.58588e-05 0
7.88607e-05 3.76287e-05 0
7.81733e-05 3.57987e-05 0
8.16783e-05 3.84471e-05 0
8.07975e-05 4.04095e-05 0
7.52138e-05 4.04775e-05 0
7.67682e-05 4.17043e-05 0
7.49617e-05 4.21803e-05 0
7.52903e-05 3.84008e-05 0
7.38293e-05 3.93136e-05 0
[...]
CELL_DATA 58684
VECTORS velocity DOUBLE
74.2659 0.337391 0
87.6233 0.000281388 0
87.5962 -0.000148803 0
87.6293 -0.00126339 0
87.6013 0.00103854 0
87.634 -0.00313547 0
87.6073 0.00380905 0
77.8785 -0.00151755 0
77.8932 -0.0243105 0
78.0017 -0.00260665 0
78.117 -0.00506935 0
78.1814 -0.407739 0
77.9276 -0.108973 0
78.2627 -0.134591 0
77.9067 -0.183936 0
78.4641 -0.169496 0
77.8794 -0.111936 0
78.8321 -0.157085 0
77.9572 -0.315978 0
79.3497 -0.110632 0
77.8917 -0.114965 0
78.7999 -0.368825 0
85.5039 -2.16658 0
77.8615 0.0122042 0
77.8648 0.0508331 0
77.8609 0.0248646 0
77.9027 0.141278 0
77.8928 0.023223 0
77.8973 0.187915 0
77.9985 0.0490281 0
77.8887 0.144752 0
77.9537 0.0330946 0
77.8516 0.143409 0
78.3339 0.162007 0
78.0445 1.12951 0
78.1864 0.0685123 0
77.9002 0.178038 0
78.414 0.353134 0
87.6395 0.000267292 0
87.6454 0.000354185 0
87.6536 -0.00597579 0
87.6532 -0.00265097 0
87.6644 0.000926786 0
87.6732 -0.0045544 0
87.6744 -0.00771629 0
87.6764 -0.00351902 0
87.6855 0.000379962 0
87.6917 -0.00732117 0
87.691 -0.00525047 0
87.701 0.000294378 0
87.7096 -0.00790521 0
87.71 -0.00937346 0
87.7116 -0.00473443 0
87.72 -0.000166437 0
87.7256 -0.00928937 0
87.7249 -0.00724077 0
87.7341 -0.000732512 0
87.7428 -0.0117011 0
87.743 -0.0118893 0
87.7453 -0.00573901 0
87.7556 -1.43157e-05 0
87.7574 -0.0154287 0
87.7645 -0.00951516 0
87.7756 -0.00115086 0
87.7764 -0.0177173 0
87.7774 -0.0146889 0
87.7859 -0.0116677 0
87.7927 -0.00109235 0
87.7927 -0.0175614 0
87.8012 -0.0126162 0
87.8093 -0.00150002 0
87.8096 -0.0198566 0
87.8161 -0.0147114 0
87.8231 -0.0239108 0
87.8308 -0.000739936 0
87.8337 -0.0179013 0
87.8383 -0.0112853 0
87.8498 -0.00187452 0
87.8517 -0.0250044 0
87.8712 -0.0201363 0
87.8557 -0.020196 0
87.8725 -0.00173806 0
87.8798 -0.0129783 0
87.8746 -0.025087 0
87.9013 -0.0159908 0
87.8969 -0.0212437 0
87.8952 -0.0290257 0
87.9059 -0.0351714 0
87.9245 -0.0222083 0
87.9386 -0.0318205 0
87.917 -0.0272253 0
87.9324 -0.039196 0
87.948 -0.0298269 0
87.9446 -0.0298307 0
87.9533 -0.0412019 0
87.9824 -0.0383877 0
87.9652 -0.0327667 0
87.9737 -0.0437014 0
87.9907 -0.0503531 0
87.9946 -0.037581 0
88.0179 -0.0459574 0
87.9983 -0.0407003 0
88.0196 -0.0137091 0
88.0234 -0.0512507 0
88.0412 -0.0484659 0
88.0337 -0.0527063 0
88.0409 -0.014464 0
88.0477 -0.0563364 0
88.063 -0.0623236 0
88.0768 -0.0358829 0
88.0742 -0.0381651 0
88.0611 -0.0515735 0
88.0932 -0.0671918 0
88.0899 -0.0279444 0
88.1197 -0.0615996 0
88.1061 -0.0399883 0
88.1364 -0.00351141 0
88.1297 -0.0701428 0
88.1435 -0.0798203 0
88.172 -0.0712062 0
88.1877 -0.0544883 0
88.1454 -0.0425285 0
88.1805 -0.0814633 0
88.2104 -0.0555339 0
88.2081 -0.0857829 0
88.182 -0.0311044 0
88.2195 -0.0778864 0
88.2283 -0.0299941 0
88.232 -0.0898417 0
88.2572 -0.103386 0
88.2838 -0.061774 0
88.2799 -0.0866914 0
88.2513 -0.0407438 0
88.3168 -0.111906 0
88.2623 -0.0325005 0
88.2981 -0.111419 0
88.3577 -0.125449 0
88.3662 -0.0885878 0
88.3808 -0.107838 0
88.345 -0.104816 0
88.371 -0.115223 0
88.3338 -0.0493093 0
88.4106 -0.132322 0
88.4346 -0.145769 0
88.4567 -0.0953351 0
88.3853 -0.0708913 0
88.4278 -0.124845 0
88.4472 -0.146713 0
88.404 -0.029638 0
88.5085 -0.157312 0
88.5211 -0.173835 0
88.5486 -0.10681 0
88.4705 -0.0925563 0
88.5306 -0.146225 0
88.5503 -0.173367 0
88.4859 -0.0315216 0
88.5683 -0.200012 0
88.6119 -0.213554 0
88.6148 -0.14961 0
88.6168 -0.173795 0
88.6549 -0.157601 0
88.6467 -0.220352 0
88.6288 -0.0579412 0
88.6544 -0.207365 0
88.7165 -0.210686 0
88.6766 -0.0681104 0
88.773 -0.247779 0
88.7925 -0.228408 0
88.769 -0.145678 0
88.8122 -0.110632 0
88.7789 -0.254174 0
88.8119 -0.278902 0
88.7859 -0.056789 0
88.8694 -0.281088 0
88.9086 -0.287402 0
88.8357 -0.20665 0
88.8794 -0.130539 0
88.9101 -0.169954 0
88.9389 -0.327835 0
88.9433 -0.111068 0
88.9883 -0.305468 0
89.0125 -0.298955 0
89.0363 -0.348509 0
88.9657 -0.00569183 0
89.1161 -0.346643 0
89.0146 -0.268765 0
89.1068 -0.242807 0
89.1637 -0.282877 0
89.1598 -0.383832 0
89.202 -0.387163 0
89.0639 -0.0879452 0
89.2296 -0.375835 0
89.256 -0.432045 0
89.2646 -0.415943 0
89.307 -0.0968595 0
89.2422 -0.33066 0
89.3935 -0.478729 0
89.4166 -0.363081 0
89.3482 -0.30631 0
89.4372 -0.504959 0
89.4285 -0.499539 0
89.3014 -0.0873258 0
89.5089 -0.554339 0
89.538 -0.522276 0
89.6545 -0.104745 0
89.6164 -0.573373 0
89.4852 -0.402637 0
89.6843 -0.369448 0
89.7408 -0.475946 0
89.6572 -0.521288 0
89.6828 -0.623418 0
89.701 -0.22639 0
89.8208 -0.605833 0
89.7892 -0.693573 0
89.9437 -0.709414 0
89.8756 -0.012815 0
89.8977 -0.584241 0
89.9529 -0.734708 0
89.7919 -0.181581 0
90.0059 -0.772972 0
90.0735 -0.450307 0
90.0474 -0.807851 0
90.1999 -0.25476 0
90.1824 -0.704552 0
90.1569 -0.826607 0
90.0787 -0.12758 0
90.2801 -0.855354 0
90.432 -0.839308 0
90.2947 -0.710831 0
90.3265 -0.432779 0
90.4633 -0.963723 0
90.45 -0.381842 0
90.5785 -0.065328 0
90.407 -0.760999 0
90.5612 -0.958399 0
90.6436 -1.02827 0
90.6421 -0.326555 0
90.7661 -0.893447 0
90.9055 -0.982252 0
90.6964 -0.108727 0
91.0361 -0.959898 0
90.9633 -1.0684 0
90.8297 -0.78958 0
90.8646 -0.382068 0
90.969 -0.448528 0
91.0991 -1.07914 0
90.9867 -0.00815717 0
91.1988 -1.15206 0
91.3214 -1.09672 0
91.282 -1.15304 0
91.208 -0.252189 0
91.3732 -0.942166 0
91.6033 -0.960757 0
91.1535 -0.00634798 0
91.6952 -1.14 0
91.8534 -0.971634 0
91.5184 -0.701178 0
91.3259 -0.290431 0
91.8548 -1.09784 0
91.4845 -0.361483 0
91.2401 -0.0178102 0
91.7699 -0.739842 0
92.099 -1.00263 0
92.2554 -0.937648 0
91.4151 -0.0807272 0
92.1865 -0.641392 0
92.3348 -0.841779 0
91.2431 0.0283864 0
92.466 -0.831001 0
92.642 -0.699637 0
92.2515 -0.251603 0
90.9528 0.00879157 0
92.7849 -0.472451 0
91.8878 0.188571 0
92.1119 0.29354 0
92.6498 -0.316082 0
92.42 -0.0474721 0
93.0904 -0.0773646 0
91.057 0.369265 0
93.0797 -0.182383 0
92.6017 0.401618 0
93.251 0.468673 0
90.9833 0.106556 0
93.1796 1.17916 0
92.9389 1.41192 0
89.5147 0.197473 0
93.4116 0.86644 0
93.2891 1.35175 0
90.8985 1.47443 0
90.6735 0.70129 0
92.2302 1.10379 0
93.1699 1.88867 0
89.7713 0.330394 0
92.6489 2.78322 0
93.345 2.12706 0
93.354 2.35485 0
88.9597 1.41304 0
91.6537 2.91766 0
92.6868 3.17234 0
88.952 0.23028 0
92.4963 3.67504 0
92.1395 3.5581 0
91.1334 5.18591 0
86.5841 0.395727 0
92.2864 4.88256 0
90.285 3.52256 0
88.3949 1.56439 0
87.9799 2.98645 0
92.0434 5.38845 0
90.883 5.84045 0
87.0283 0.607453 0
90.954 6.66657 0
87.6127 9.80135e-05 0
87.6187 -0.000410997 0
87.6261 0.00522506 0
87.6257 0.00253483 0
87.6363 -0.000915073 0
87.6449 0.00444411 0
87.646 0.00691949 0
87.6486 0.00245492 0
87.6567 -0.000315518 0
87.6628 0.00739074 0
87.6621 0.00461352 0
87.6717 -0.000321927 0
87.6799 0.00775288 0
87.6802 0.00920411 0
87.6818 0.0047135 0
87.6901 0.000145831 0
87.6957 0.00935629 0
87.695 0.0072254 0
87.7042 0.000742789 0
87.7129 0.0114829 0
87.7132 0.0118049 0
87.7246 0.0161072 0
87.7155 0.00562754 0
87.7314 0.00944141 0
87.7443 0.0150656 0
87.7347 0.00966591 0
87.7481 0.0147701 0
87.7565 0.011737 0
87.763 0.0190332 0
87.7531 0.00987525 0
87.7719 0.0128728 0
87.7796 0.0211972 0
87.771 0.0103497 0
87.7945 0.0244059 0
87.797 0.0230954 0
87.802 0.0172562 0
87.7899 0.0122669 0
87.8049 0.0182079 0
87.82 0.0177137 0
87.8096 0.0115026 0
87.8344 0.0301932 0
87.8328 0.0115079 0
87.8432 0.020281 0
87.8298 0.0154339 0
87.8468 0.0251752 0
87.8676 0.0290073 0
87.8733 0.0161235 0
87.8629 0.0264592 0
87.8834 0.0310298 0
87.8853 0.0344681 0
87.9058 0.0177033 0
87.8969 0.0220631 0
87.9108 0.0315802 0
87.9244 0.0438908 0
87.9287 0.0214091 0
87.9356 0.0349405 0
87.9439 0.0459667 0
87.9533 0.0266161 0
87.9369 0.0324161 0
87.9634 0.0506175 0
87.9648 0.048575 0
87.971 0.031044 0
87.9807 0.0223532 0
87.9901 0.0451981 0
87.9389 0.0140462 0
88.0059 0.0525384 0
88.0352 0.0628073 0
88.0187 0.052861 0
88.0046 0.031628 0
88.0456 0.0633461 0
88.0517 0.0563907 0
88.0639 0.0280086 0
88.0345 0.0519574 0
88.0713 0.0595075 0
88.0862 0.068551 0
88.0394 0.0163513 0
88.0743 0.0492402 0
88.1178 0.0797404 0
88.0818 0.040504 0
88.1273 0.0709931 0
88.1534 0.0847554 0
88.1292 0.0620554 0
88.1432 0.0258151 0
88.1613 0.07456 0
88.1783 0.0869387 0
88.1553 0.0218286 0
88.1995 0.0957924 0
88.1664 0.0694177 0
88.2181 0.0803068 0
88.1806 0.0550398 0
88.2292 0.103619 0
88.2822 0.125373 0
88.2373 0.032124 0
88.2404 0.0853042 0
88.3056 0.132947 0
88.2808 0.0951644 0
88.2272 0.0397773 0
88.319 0.124717 0
88.3377 0.131037 0
88.2925 0.0323957 0
88.3342 0.0587245 0
88.3645 0.115168 0
88.3832 0.151949 0
88.3137 0.0802952 0
88.4096 0.147691 0
88.4279 0.157733 0
88.4181 0.0542564 0
88.4038 0.0975373 0
88.4702 0.175505 0
88.4614 0.148884 0
88.3661 0.0486051 0
88.4845 0.16743 0
88.5278 0.179578 0
88.493 0.071116 0
88.4961 0.152985 0
88.5803 0.212616 0
88.5626 0.16231 0
88.4445 0.0519389 0
88.6002 0.199057 0
88.6581 0.239268 0
88.5407 0.0689263 0
88.6405 0.189893 0
88.61 0.0889519 0
88.6752 0.197517 0
88.5927 0.112061 0
88.7095 0.252261 0
88.7558 0.250708 0
88.6537 0.0685016 0
88.7447 0.244074 0
88.8113 0.2802 0
88.7477 0.0722753 0
88.7153 0.205592 0
88.7948 0.237879 0
88.8501 0.282536 0
88.7268 0.0426623 0
88.8549 0.256896 0
88.9431 0.330919 0
88.9171 0.276567 0
88.8439 0.0845107 0
88.9765 0.287056 0
88.8081 0.108117 0
88.8537 0.24561 0
88.9741 0.319159 0
89.0655 0.360478 0
89.0711 0.367828 0
88.8191 0.00777625 0
89.1537 0.417321 0
89.1612 0.406771 0
89.17 0.357941 0
89.1015 0.177799 0
89.1881 0.193783 0
89.1898 0.400927 0
88.9798 0.11009 0
89.2913 0.452747 0
89.279 0.442909 0
89.2784 0.398347 0
89.1693 0.115577 0
89.3468 0.444418 0
89.4555 0.551557 0
89.31 0.208174 0
89.2711 0.222065 0
89.4086 0.446489 0
89.5549 0.576297 0
89.2025 0.138125 0
89.5884 0.607976 0
89.6171 0.594573 0
89.4335 0.117975 0
89.7343 0.680209 0
89.761 0.654888 0
89.8096 0.567201 0
89.6096 0.251518 0
89.5886 0.28418 0
89.7412 0.633459 0
89.5058 0.184276 0
89.8856 0.755095 0
89.9284 0.716766 0
89.9206 0.662597 0
89.6796 0.101412 0
90.0741 0.783148 0
90.0861 0.801194 0
89.9422 0.451902 0
90.1662 0.633575 0
89.953 0.367654 0
90.1322 0.77114 0
89.8552 0.233293 0
90.2718 0.901454 0
90.2901 0.87477 0
89.8815 0.184119 0
90.3507 0.807012 0
90.5124 0.934667 0
90.4351 0.909887 0
90.3199 0.2131 0
90.7012 0.982938 0
90.7417 1.04756 0
90.2885 0.631502 0
90.6382 0.778946 0
90.3374 0.38598 0
90.9186 1.10707 0
90.4809 0.119682 0
90.9754 1.07965 0
90.9674 1.02638 0
90.319 0.0954721 0
90.8991 0.927491 0
91.2662 1.10298 0
91.3527 1.11343 0
90.8366 0.277537 0
91.4186 1.08934 0
91.4661 1.1612 0
90.8312 0.702623 0
91.4646 0.769543 0
90.9746 0.271932 0
91.6235 1.16233 0
90.9897 0.101678 0
91.7609 1.08803 0
91.8447 1.07291 0
90.8386 0.0706172 0
91.6632 0.887226 0
92.1182 1.00512 0
92.274 0.941482 0
91.2219 0.180477 0
92.112 0.882613 0
92.403 0.892986 0
91.7515 0.757372 0
92.1782 0.447128 0
91.2834 0.115309 0
92.1754 0.799429 0
91.2764 0.0425808 0
92.6387 0.786404 0
92.7194 0.637966 0
91.1934 0.0400296 0
92.4119 0.318952 0
92.8558 0.35123 0
93.0363 0.215137 0
91.2109 -0.0966725 0
93.1171 0.00968232 0
93.1567 -0.128759 0
91.341 -0.263483 0
93.1684 -0.159905 0
92.3447 -0.622502 0
91.6567 -0.0825432 0
91.4738 0.0075975 0
93.2915 -0.454629 0
93.0383 -0.855992 0
93.4632 -1.03245 0
91.099 -0.00474628 0
92.723 -1.31163 0
93.4416 -1.7732 0
91.029 -0.122063 0
92.5617 -1.2811 0
93.4018 -2.31565 0
91.9714 -1.75209 0
90.978 -0.655191 0
93.1997 -2.6679 0
93.0505 -2.96288 0
91.9615 -1.10246 0
91.3329 -3.1344 0
89.2636 -2.59323 0
92.6839 -3.00146 0
89.7285 -0.405353 0
92.6503 -3.95589 0
90.0099 7.26975 0
90.7556 6.49501 0
85.2735 1.92207 0
89.9005 7.2271 0
87.6341 6.61773 0
89.2329 7.86155 0
85.8835 0.753426 0
88.2389 8.06684 0
87.0497 7.94189 0
84.5972 0.960464 0
87.1268 8.46814 0
92.5517 -4.37499 0
89.9853 -0.251458 0
92.2751 -4.72298 0
91.0158 -5.12605 0
90.4645 -4.41183 0
89.0477 -0.266018 0
91.2546 -5.71528 0
85.7996 7.73876 0
90.5846 -6.99439 0
88.775 -1.39651 0
90.2554 -6.76181 0
89.3777 -7.72775 0
83.4139 2.36343 0
88.934 -7.58419 0
90.1895 -4.22587 0
89.4306 -6.86912 0
87.5474 -5.08693 0
86.6115 -0.837115 0
88.4805 -6.9798 0
87.6728 -7.39118 0
85.1706 8.16628 0
87.7476 -7.40292 0
87.4675 -0.453003 0
86.7003 -7.75729 0
86.1838 -8.46368 0
85.9089 -0.56222 0
85.0794 -8.60959 0
85.5874 -6.31626 0
83.6784 -0.651272 0
84.0549 -8.76203 0
84.107 -4.85955 0
85.862 -3.82426 0
84.5968 -7.50072 0
83.4732 -7.85278 0
86.1805 4.38467 0
82.479 0.527171 0
85.5794 2.93236 0
84.1999 -0.0722334 0
82.928 -8.51937 0
84.7865 7.73307 0
82.1987 0.38406 0
84.1997 6.58083 0
82.0523 -8.38352 0
83.7602 -1.71383 0
81.314 -6.1198 0
84.2087 8.81728 0
81.057 2.02141 0
84.105 8.74218 0
81.8406 7.29135 0
81.3489 0.412478 0
82.4906 7.66568 0
81.9336 -6.36588 0
83.2551 -0.473674 0
81.1896 -8.51225 0
81.2048 -8.27958 0
82.8714 8.23412 0
80.9213 7.85068 0
80.6375 0.0409662 0
81.9978 8.10438 0
80.0849 5.07667 0
80.645 2.28378 0
80.2588 -8.46061 0
81.1263 -1.098 0
80.5943 -8.33586 0
79.7942 8.30345 0
79.6217 -7.72982 0
80.232 -1.07552 0
79.8675 -3.39261 0
78.3506 -7.42528 0
81.3719 -4.10318 0
78.2063 -7.17999 0
79.7114 -0.288998 0
77.2867 -6.86082 0
79.3918 2.85936 0
79.9933 0.460134 0
79.3496 6.96987 0
79.3572 0.115469 0
79.1575 8.18055 0
78.8613 7.67785 0
79.0289 0.18467 0
78.0847 6.71869 0
78.7947 0.132852 0
78.6668 -6.41776 0
79.7102 -0.573716 0
79.8965 6.04053 0
77.9275 0.734398 0
77.6339 6.30848 0
77.1681 -6.82197 0
79.8241 -0.230332 0
75.5303 -5.8321 0
77.8989 -0.439085 0
76.3451 -5.73996 0
78.6433 2.54469 0
77.8577 0.119928 0
79.3784 -5.2231 0
77.8599 -0.112482 0
75.6449 -5.40385 0
77.0323 5.69157 0
77.0305 -4.26366 0
77.8823 -0.242369 0
75.9372 -4.62664 0
78.0125 3.1378 0
75.8604 1.99324 0
76.5224 4.92005 0
77.6749 -0.982447 0
75.7906 -5.12939 0
77.8299 0.400526 0
76.465 6.64158 0
77.7628 -2.37398 0
77.8593 -0.0840802 0
75.4526 -4.62597 0
76.1864 5.93467 0
77.8581 0.714609 0
76.1172 4.6365 0
75.8459 4.5766 0
77.8237 0.379141 0
75.0446 4.07537 0
74.6022 -4.15669 0
77.852 -0.294182 0
74.3004 -4.1491 0
76.6295 -1.97624 0
77.8613 -0.200593 0
73.6709 -2.82733 0
75.1144 5.07149 0
77.7855 0.619211 0
76.3234 3.24683 0
74.2736 -2.56834 0
77.7704 -0.310518 0
73.6306 -2.33933 0
73.9958 3.73163 0
77.7806 0.264827 0
74.3901 3.51501 0
74.682 2.8674 0
77.858 0.0349861 0
73.8566 3.05493 0
74.9517 -1.51088 0
77.7253 -0.539388 0
74.2504 -1.3312 0
73.0879 -0.847797 0
77.094 -0.923118 0
73.1373 -0.718586 0
76.8069 0.95765 0
77.8038 0.0771524 0
75.9373 2.434 0
73.6356 2.46078 0
77.6831 0.0591411 0
73.2119 1.55358 0
77.4205 -0.235109 0
77.8455 -0.111498 0
73.1354 -0.236087 0
73.6532 -0.0923926 0
77.8231 -0.065802 0
75.8376 0.307744 0
73.8199 0.526696 0
77.8332 -0.061855 0
77.2429 -5.65381 0
77.9328 -0.430491 0
77.8486 0.131939 0
78.103 6.88048 0
79.0606 -7.73558 0
82.1056 -0.943945 0
80.469 0.994741 0
81.765 8.61116 0
77.8066 0.278401 0
74.5642 4.85289 0
74.0277 -2.83576 0
77.8127 -0.200043 0
77.886 -0.569892 0
77.6002 -3.6655 0
77.9571 0.798201 0
77.9109 0.199452 0
77.8162 -0.000545931 0
73.7024 2.05235 0
79.3169 0.465318 0
78.4009 1.57256 0
78.7293 -1.36936 0
80.2783 -0.689671 0
85.9989 -1.26561 0
85.562 -8.45424 0
87.4821 8.0646 0
85.5208 0.467806 0
77.7629 1.66076 0
79.7081 7.99754 0
78.6147 -7.07965 0
79.278 -2.3101 0
76.9142 -1.45628 0
74.6401 -0.222007 0
76.2202 5.82863 0
78.0851 1.88857 0
77.9225 -1.78473 0
74.8286 -4.63166 0
92.0143 -5.36205 0
88.7166 -0.65868 0
88.2739 0.789175 0
92.4793 4.45731 0
77.9523 -0.811494 0
77.8837 -0.0445523 0
77.8746 0.147392 0
78.9555 0.755746 0
83.1985 0.732367 0
82.8269 4.10094 0
81.25 -1.98546 0
84.4234 -1.7426 0
81.7302 4.89395 0
84.7255 8.29827 0
83.5401 -8.67975 0
82.6254 -1.91619 0
86.7906 1.60737 0
87.8823 5.01717 0
86.4218 -2.78544 0
87.6192 -0.0403904 0
90.9646 -0.246471 0
93.4164 -1.28326 0
93.2814 0.47966 0
90.1059 0.0257003 0
91.237 0.00462104 0
92.7589 0.619202 0
92.5375 -0.598293 0
91.347 0.0294573 0
79.0261 -1.44431 0
78.4542 -0.572577 0
78.3726 1.23383 0
79.196 0.94913 0
78.2088 1.22291 0
77.8815 0.239701 0
77.8571 -0.106142 0
78.1309 -1.12396 0
89.7607 0.948197 0
91.0138 1.86987 0
90.096 -1.1387 0
90.3379 -0.168371 0
75.9676 -0.95756 0
77.8418 -0.155303 0
77.4603 -0.438193 0
77.859 -0.373606 0
77.8496 0.204157 0
77.87 0.963716 0
91.9107 1.01994 0
91.1117 0.160031 0
91.207 -0.00639597 0
91.6615 -1.09265 0
81.7207 -0.0401399 0
80.9479 -2.82209 0
82.035 1.80289 0
80.7007 0.446899 0
77.8515 4.04298 0
77.39 7.31631 0
77.1236 -6.25944 0
78.308 -3.22446 0
78.7935 -2.10762 0
77.5348 -2.2258 0
77.9517 4.63509 0
78.2229 2.22111 0
91.3472 0.041604 0
91.0441 0.139855 0
91.2569 -0.0462087 0
92.2514 0.124993 0
79.8075 -5.42028 0
80.9016 -5.25625 0
80.4748 4.63666 0
81.0548 8.53157 0
79.1202 -3.9759 0
80.2901 -2.30998 0
80.1286 3.1136 0
79.2629 1.53393 0
91.2073 1.16585 0
90.68 0.145861 0
90.8804 -0.0128443 0
90.8247 -1.04019 0
77.3013 1.01313 0
77.8414 0.0292213 0
91.2694 -0.0619183 0
91.9104 -0.376254 0
91.6285 0.262778 0
91.1333 0.0404883 0
78.8235 -0.954121 0
78.3448 -1.32905 0
79.1417 1.74001 0
78.2188 0.732467 0
77.8896 -0.146411 0
78.1379 -0.696185 0
77.9574 0.313638 0
77.8643 0.135588 0
74.1304 1.71207 0
76.9526 1.52199 0
87.1918 -3.1472 0
90.5786 -6.34072 0
91.5584 5.78605 0
86.9008 2.27102 0
76.8095 -2.31047 0
74.764 -2.89716 0
90.1003 0.154439 0
90.3451 0.874086 0
89.5013 0.0732555 0
90.0454 0.817848 0
90.3655 -0.848832 0
90.2104 -0.141429 0
89.8464 -0.681088 0
89.7559 -0.0146206 0
91.0305 -0.220777 0
91.1588 -0.633195 0
91.0082 0.398808 0
90.7835 0.00890571 0
77.8518 0.178472 0
77.6714 0.537608 0
76.4487 0.451519 0
74.2227 0.845531 0
77.7836 -0.249209 0
77.8361 -0.169039 0
77.3678 0.274296 0
77.2999 -0.749064 0
93.1969 -2.72006 0
90.0045 -1.74272 0
90.9958 2.21137 0
93.3891 1.58203 0
78.0171 -0.0632219 0
78.1176 -0.363482 0
77.8891 0.0525001 0
78.2966 0.260306 0
90.5184 -0.207426 0
90.5455 -0.533579 0
90.5581 0.358548 0
90.2146 0.115135 0
89.3562 0.1619 0
89.5215 0.504147 0
89.5539 -0.587968 0
89.4341 -0.143599 0
78.4652 -0.895979 0
79.3995 -2.13137 0
78.8329 1.60936 0
78.4494 1.26911 0
79.1738 2.87589 0
77.5787 1.8476 0
78.1199 -1.91846 0
78.7946 -2.78821 0
91.6652 -0.523839 0
92.6675 0.334901 0
92.839 -0.330234 0
92.0886 0.556873 0
77.6824 -1.14562 0
77.8004 -1.36172 0
77.8231 1.07992 0
77.3319 1.30463 0
89.3916 0.519826 0
89.1265 0.156562 0
89.1775 -0.0982573 0
89.3431 -0.445402 0
85.256 4.26298 0
87.2893 7.11985 0
86.7793 -8.38891 0
86.3236 -3.33938 0
75.2431 -3.42029 0
77.5601 -3.50811 0
84.8726 -3.05874 0
85.5343 -1.09717 0
83.852 0.452925 0
87.245 3.10219 0
74.8458 4.62147 0
76.7247 2.72867 0
89.9565 -0.052197 0
90.1244 -0.536738 0
90.0109 0.352916 0
89.9291 0.0942459 0
89.1777 -0.369103 0
88.9337 -1.51048 0
89.4949 2.08271 0
88.5038 0.270856 0
83.2068 1.39491 0
81.4319 0.350156 0
82.5749 -0.33717 0
83.2523 -3.10696 0
91.595 0.336653 0
91.8897 0.887781 0
92.045 -0.963847 0
91.8856 -0.0730191 0
82.2283 -3.82505 0
83.3377 -1.83362 0
82.5424 2.70742 0
85.139 5.97923 0
89.0464 0.31932 0
88.9225 0.0609642 0
89.0716 -0.095854 0
89.0447 -0.333616 0
89.5249 -0.178499 0
89.6571 -0.00976543 0
89.635 0.0997665 0
89.5054 0.417536 0
79.9388 0.496993 0
79.6932 1.30103 0
79.9561 -1.14402 0
80.8153 -0.319041 0
81.5012 2.82251 0
79.8584 1.94434 0
79.2413 -2.82891 0
78.4025 -2.85644 0
90.9957 -0.476224 0
90.7362 -0.275787 0
90.5408 0.372449 0
91.5138 0.614619 0
79.8653 3.83973 0
80.3675 2.56644 0
79.3042 -0.822483 0
79.1299 -0.293056 0
78.9655 0.265584 0
79.6991 0.886379 0
76.5712 -0.872659 0
77.5324 -1.3442 0
92.5368 -3.62973 0
90.0449 -2.05991 0
89.4649 3.74196 0
92.9303 3.69001 0
77.8903 -0.861414 0
77.8825 -0.142126 0
77.8222 0.197772 0
77.9637 0.842929 0
78.2253 0.086901 0
78.2508 0.623427 0
78.4023 -0.341873 0
78.5503 -0.020132 0
75.445 -0.267595 0
73.151 0.151784 0
85.2659 3.21938 0
89.4326 2.96898 0
88.0977 -2.51108 0
88.6911 -4.96413 0
77.5893 2.06256 0
77.147 1.15167 0
77.8575 -0.0251108 0
77.6587 -0.0500138 0
80.4496 6.82794 0
78.3171 4.05108 0
80.0689 -4.29069 0
79.116 -8.09937 0
77.3754 0.782918 0
77.7716 0.42241 0
91.0433 0.530549 0
91.3789 1.15524 0
91.1022 -1.04576 0
91.015 -0.207452 0
89.1879 -0.115535 0
89.3604 -0.0787353 0
89.3382 0.0674815 0
89.2704 0.385416 0
93.1858 0.398198 0
91.9807 1.36384 0
92.0818 -0.536056 0
93.3066 -0.657702 0
77.4764 0.10727 0