# vtk DataFile Version 3.0
Unstructured Grid for Triangles
ASCII
DATASET UNSTRUCTURED_GRID
POINTS 29612 DOUBLE
-2.72397e-05 1.23686e-06 0
-2.95789e-05 9.5838e-07 0
-2.77865e-05 -3.1235e-07 0
0.0002024 5e-05 0
0.000203975 4.9875e-05 0
0.000205 5e-05 0
0.000203975 -4.9875e-05 0
0.0002024 -5e-05 0
0.000205 -5e-05 0
0.00020295 4.975e-05 0
0.00020295 -4.975e-05 0
0.000201925 4.9625e-05 0
0.000201925 -4.9625e-05 0
-5.29747e-05 -4.79887e-05 0
-5.5e-05 -5e-05 0
-5.24e-05 -5e-05 0
-5.05983e-05 -4.84325e-05 0
-4.98e-05 -5e-05 0
-4.72e-05 -5e-05 0
-4.83864e-05 -4.87761e-05 0
-4.46e-05 -5e-05 0
-4.59e-05 -4.84239e-05 0
-4.29453e-05 -4.24878e-05 0
-4.47486e-05 -4.20717e-05 0
-4.41829e-05 -4.36609e-05 0
-5.12578e-05 -4.62101e-05 0
-4.93077e-05 -4.53594e-05 0
-5.0706e-05 -4.39006e-05 0
-4.19243e-05 -4.77545e-05 0
-4.40307e-05 -4.71837e-05 0
-4.3691e-05 -4.86724e-05 0
-5.16129e-05 -4.20948e-05 0
-4.95355e-05 -4.15432e-05 0
-5.11646e-05 -4.0128e-05 0
-3.94697e-05 -4.81197e-05 0
-4.06302e-05 -4.55143e-05 0
-5.37257e-05 -3.88197e-05 0
-5.31099e-05 -4.07297e-05 0
-5.23982e-05 -3.88328e-05 0
-3.70063e-05 -4.72956e-05 0
-3.68e-05 -5e-05 0
-3.5308e-05 -4.85302e-05 0
-5.072e-05 -3.7867e-05 0
-4.85506e-05 -3.83975e-05 0
-4.90949e-05 -3.59622e-05 0
-3.37127e-05 -4.84331e-05 0
-3.16e-05 -5e-05 0
-3.26495e-05 -4.7415e-05 0
-5.5e-05 -3.5e-05 0
-5.31201e-05 -3.70361e-05 0
-5.28367e-05 -3.46817e-05 0
-3.63898e-05 -4.48809e-05 0
-3.83315e-05 -4.60336e-05 0
-3.26269e-06 -4.15503e-05 0
-5.99662e-06 -4.09556e-05 0
-5.46944e-06 -4.29488e-05 0
-5.29747e-05 4.79887e-05 0
-5.5e-05 5e-05 0
-5.5e-05 4.75e-05 0
-5.5e-05 4.5e-05 0
-5.34834e-05 4.29171e-05 0
-5.26943e-05 4.42611e-05 0
-5.34026e-05 4.60176e-05 0
-5.31099e-05 4.07297e-05 0
-5.11672e-05 4.01178e-05 0
-5.16129e-05 4.20948e-05 0
-5.24e-05 5e-05 0
-5.05983e-05 4.84325e-05 0
-5.31201e-05 3.70361e-05 0
-5.072e-05 3.7867e-05 0
-5.23982e-05 3.88328e-05 0
-4.8341e-05 4.69132e-05 0
-4.83679e-05 4.87539e-05 0
-5.28367e-05 3.46817e-05 0
-5.5e-05 3.25e-05 0
-5.25657e-05 3.28474e-05 0
-4.98e-05 5e-05 0
-5.30382e-05 3.125e-05 0
-4.19243e-05 4.77545e-05 0
-4.40015e-05 4.7335e-05 0
-4.25917e-05 4.63678e-05 0
-4.35138e-05 2.62661e-05 0
-4.14982e-05 2.74462e-05 0
-4.35654e-05 2.85217e-05 0
-4.59e-05 4.84239e-05 0
-4.36852e-05 4.87027e-05 0
-4.46e-05 5e-05 0
-5.33308e-05 2.92503e-05 0
-5.5e-05 2.75e-05 0
-5.23377e-05 2.76953e-05 0
-4.25282e-05 4.46352e-05 0
-4.09368e-05 4.35728e-05 0
-4.06302e-05 4.55143e-05 0
0.0002009 4.95e-05 0
0.0001998 5e-05 0
0.000199875 4.9375e-05 0
0.00019885 4.925e-05 0
0.0001972 5e-05 0
0.000197825 4.9125e-05 0
0.0001968 4.9e-05 0
0.000195775 4.8875e-05 0
0.0001946 5e-05 0
0.00019475 4.875e-05 0
0.000193725 4.8625e-05 0
0.000192 5e-05 0
0.0001927 4.85e-05 0
0.000191675 4.8375e-05 0
0.00019065 4.825e-05 0
0.0001894 5e-05 0
0.000189625 4.8125e-05 0
0.0001886 4.8e-05 0
0.0001868 5e-05 0
0.000187575 4.7875e-05 0
0.00018655 4.775e-05 0
0.000185515 4.8575e-05 0
0.0001842 5e-05 0
0.0001845 4.75e-05 0
0.000185525 4.7625e-05 0
0.000182564 4.829e-05 0
0.0001816 5e-05 0
0.00018245 4.725e-05 0
0.000183475 4.7375e-05 0
0.000181425 4.7125e-05 0
0.000180295 4.82657e-05 0
0.000179 5e-05 0
0.000179375 4.6875e-05 0
0.0001804 4.7e-05 0
0.000178168 4.80619e-05 0
0.0001764 5e-05 0
0.000177325 4.6625e-05 0
0.00017835 4.675e-05 0
0.000176428 4.76631e-05 0
0.0001763 4.65e-05 0
0.0001738 5e-05 0
0.0001751 4.84164e-05 0
0.000175275 4.6375e-05 0
0.000174025 4.75632e-05 0
0.0001712 5e-05 0
0.000172615 4.78449e-05 0
0.0001722 4.6e-05 0
0.000173225 4.6125e-05 0
0.00017015 4.575e-05 0
0.000171243 4.7381e-05 0
0.000169554 4.79999e-05 0
0.0001686 5e-05 0
0.000167507 4.79751e-05 0
0.000168498 4.64861e-05 0
0.000166 5e-05 0
0.00016558 4.71459e-05 0
0.000167135 4.62887e-05 0
0.0001681 4.55e-05 0
0.00016605 4.525e-05 0
0.000167075 4.5375e-05 0
0.000164059 4.61599e-05 0
0.00016394 4.79552e-05 0
0.000162881 4.6615e-05 0
0.000162975 4.4875e-05 0
0.000165025 4.5125e-05 0
0.000164 4.5e-05 0
0.000161754 4.58641e-05 0
0.000161722 4.78101e-05 0
0.000159956 4.58294e-05 0
0.000160925 4.4625e-05 0
0.00016195 4.475e-05 0
0.000157667 4.60322e-05 0
0.000158875 4.4375e-05 0
0.000159194 4.80155e-05 0
0.0001599 4.45e-05 0
0.00015785 4.425e-05 0
0.000155808 4.56757e-05 0
0.000155647 4.76701e-05 0
0.000154059 4.66642e-05 0
0.000153756 4.50083e-05 0
0.000154839 4.50446e-05 0
0.000156825 4.4125e-05 0
0.000151954 4.80508e-05 0
0.000154052 4.8477e-05 0
0.000153 5e-05 0
0.000154775 4.3875e-05 0
0.000152142 4.56625e-05 0
0.000152821 4.45753e-05 0
0.00015375 4.375e-05 0
0.0001504 5e-05 0
0.000149644 4.85168e-05 0
0.000151787 4.43178e-05 0
0.000152725 4.3625e-05 0
0.000150675 4.3375e-05 0
0.0001517 4.35e-05 0
0.000148119 4.50887e-05 0
0.000148072 4.75757e-05 0
0.000146584 4.63516e-05 0
0.000150008 4.6396e-05 0
0.000149351 4.4543e-05 0
0.00015061 4.46252e-05 0
0.0001476 4.3e-05 0
0.000148625 4.3125e-05 0
0.000146492 4.82975e-05 0
0.000144888 4.73562e-05 0
0.000146676 4.44259e-05 0
0.000145255 4.53656e-05 0
0.000145652 4.38669e-05 0
0.000141401 4.79821e-05 0
0.0001426 5e-05 0
0.00014 5e-05 0
0.000144374 4.38862e-05 0
0.00014555 4.275e-05 0
0.0001435 4.25e-05 0
0.000144525 4.2625e-05 0
0.000142746 4.38121e-05 0
0.000141288 4.43191e-05 0
0.000141707 4.32778e-05 0
0.00013921 4.38992e-05 0
0.000140355 4.5932e-05 0
0.000138302 4.5922e-05 0
0.000142912 4.58869e-05 0
0.000140592 4.30037e-05 0
0.00014145 4.225e-05 0
0.000136458 4.5869e-05 0
0.000137106 4.4063e-05 0
0.0001394 4.2e-05 0
0.000138259 4.28915e-05 0
0.000137484 4.77094e-05 0
0.000139166 4.78902e-05 0
0.00013586 4.78984e-05 0
0.000133449 4.78649e-05 0
0.000134717 4.61848e-05 0
0.000137256 4.25134e-05 0
0.000135323 4.24541e-05 0
0.000136325 4.1625e-05 0
0.000136122 4.2876e-05 0
0.000131206 4.47284e-05 0
0.000133168 4.56738e-05 0
0.000131773 4.65243e-05 0
0.000134756 4.40343e-05 0
0.000132747 4.36463e-05 0
0.000133483 4.26786e-05 0
0.000131081 4.1867e-05 0
0.000132382 4.22815e-05 0
0.000131507 4.3122e-05 0
0.000131059 4.80123e-05 0
0.00013325 4.125e-05 0
0.00012915 4.075e-05 0
0.00012982 4.18199e-05 0
0.000128915 4.26216e-05 0
0.000126366 4.47574e-05 0
0.000127331 4.30908e-05 0
0.000128781 4.44872e-05 0
0.000125336 4.28376e-05 0
0.000130218 4.31077e-05 0
0.000127894 4.16344e-05 0
0.000124774 4.69608e-05 0
0.000127668 4.64148e-05 0
0.000126591 4.8331e-05 0
0.000126722 4.18415e-05 0
0.000125768 4.11931e-05 0
0.000124326 4.13546e-05 0
0.00012505 4.025e-05 0
0.000122408 4.50118e-05 0
0.000120276 4.47432e-05 0
0.00012139 4.32235e-05 0
0.000124336 4.44132e-05 0
0.000123056 4.27595e-05 0
0.000122977 4.09049e-05 0
0.00012185 4.69217e-05 0
0.000122676 4.85947e-05 0
0.000120525 4.86094e-05 0
0.000121479 4.13153e-05 0
0.000119547 4.24221e-05 0
0.000120249 4.07448e-05 0
0.000119925 3.9625e-05 0
0.000119346 4.06114e-05 0
0.000117479 4.47279e-05 0
0.000114726 4.45259e-05 0
0.00011571 4.27814e-05 0
0.000119443 4.66611e-05 0
0.000117447 4.21596e-05 0
0.000118421 4.0752e-05 0
0.000117409 4.04437e-05 0
0.000116775 4.70073e-05 0
0.0001179 4.855e-05 0
0.000115473 4.84802e-05 0
0.00011685 3.925e-05 0
0.000117875 3.9375e-05 0
0.000115454 4.00551e-05 0
0.0001148 3.9e-05 0
0.000115825 3.9125e-05 0
0.000111704 4.23398e-05 0
0.000113786 4.26731e-05 0
0.000112589 4.43871e-05 0
0.000113234 4.06671e-05 0
0.000114754 4.13371e-05 0
0.0001106 4.42326e-05 0
0.000109703 4.24261e-05 0
0.00011275 3.875e-05 0
0.000113775 3.8875e-05 0
0.000110211 4.80875e-05 0
0.000108244 4.71951e-05 0
0.000109312 4.58413e-05 0
0.000111755 3.99116e-05 0
0.00010944 3.92972e-05 0
0.000110415 4.05876e-05 0
0.000108839 4.07536e-05 0
0.000106472 4.76905e-05 0
0.000107274 4.57868e-05 0
0.000108011 3.92415e-05 0
0.000106885 4.04365e-05 0
0.000106625 3.88708e-05 0
0.000105286 4.19254e-05 0
0.000105055 3.95469e-05 0
0.000104215 4.39764e-05 0
0.000106346 4.40629e-05 0
0.000100945 4.51249e-05 0
0.000102825 4.5614e-05 0
0.000101189 4.68452e-05 0
0.000107625 3.8125e-05 0
0.000105575 3.7875e-05 0
0.0001066 3.8e-05 0
0.000103352 4.76905e-05 0
0.000101803 4.8465e-05 0
0.000103685 3.89398e-05 0
0.00010245 3.8825e-05 0
0.000103525 3.7625e-05 0
0.000101092 3.99779e-05 0
0.000101267 3.82619e-05 0
0.000101382 4.2025e-05 0
0.000103187 4.05286e-05 0
0.000103359 4.24605e-05 0
9.87383e-05 4.5447e-05 0
9.99411e-05 4.35161e-05 0
9.744e-05 4.33145e-05 0
0.00010045 3.725e-05 0
0.000101475 3.7375e-05 0
9.70845e-05 4.65215e-05 0
9.52614e-05 4.67664e-05 0
9.61768e-05 4.49944e-05 0
9.9729e-05 3.87704e-05 0
9.78901e-05 3.9598e-05 0
9.85823e-05 3.81492e-05 0
9.62289e-05 3.93709e-05 0
9.74259e-05 3.81279e-05 0
9.7375e-05 3.6875e-05 0
9.63045e-05 3.76631e-05 0
9.58e-05 5e-05 0
9.32e-05 5e-05 0
9.47542e-05 4.8457e-05 0
9.49675e-05 3.85246e-05 0
9.36214e-05 3.89472e-05 0
9.40006e-05 3.74906e-05 0
9.66411e-05 4.12573e-05 0
9.44241e-05 4.07079e-05 0
9.03569e-05 4.24993e-05 0
9.21701e-05 4.02409e-05 0
9.27439e-05 4.27744e-05 0
8.89795e-05 4.09067e-05 0
9.03071e-05 4.0248e-05 0
9.25447e-05 3.77721e-05 0
9.3275e-05 3.6375e-05 0
9.07708e-05 3.87127e-05 0
9.11303e-05 3.70839e-05 0
9.11933e-05 4.55145e-05 0
9.30678e-05 4.73279e-05 0
9.11886e-05 4.82603e-05 0
8.87724e-05 3.88076e-05 0
8.99595e-05 3.75116e-05 0
9.02e-05 3.6e-05 0
8.89241e-05 3.6954e-05 0
8.36977e-05 4.59472e-05 0
8.36223e-05 4.83578e-05 0
8.20467e-05 4.74142e-05 0
8.71227e-05 4.03557e-05 0
8.61e-05 3.55e-05 0
8.68368e-05 3.65714e-05 0
8.5484e-05 3.6588e-05 0
8.47735e-05 4.02845e-05 0
8.23121e-05 4.21599e-05 0
8.26582e-05 3.98147e-05 0
8.46943e-05 4.2454e-05 0
8.38832e-05 3.78613e-05 0
8.35569e-05 3.63808e-05 0
8.44098e-05 3.6291e-05 0
8.5075e-05 3.5375e-05 0
8.51465e-05 4.77163e-05 0
8.3025e-05 3.5125e-05 0
8.22824e-05 3.68659e-05 0
8.1446e-05 3.57362e-05 0
8.05884e-05 3.71794e-05 0
7.53471e-05 4.77524e-05 0
7.38313e-05 4.73927e-05 0
7.39102e-05 4.61526e-05 0
7.9826e-05 3.58588e-05 0
7.88607e-05 3.76287e-05 0
7.81733e-05 3.57987e-05 0
8.16783e-05 3.84471e-05 0
8.07975e-05 4.04095e-05 0
7.52138e-05 4.04775e-05 0
7.67682e-05 4.17043e-05 0
7.49617e-05 4.21803e-05 0
7.52903e-05 3.84008e-05 0
7.38293e-05 3.93136e-05 0
[...]
CELL_DATA 58684
VECTORS velocity DOUBLE
74.029 0.337406 0
86.0279 1.95313e-05 0
86.0022 0.000112536 0
86.0309 0.000585078 0
86.0037 -0.00112739 0
86.0365 -0.00248394 0
86.0099 0.00294639 0
77.8609 -0.00281349 0
77.8671 -0.0235131 0
77.9435 -0.00398655 0
78.0366 -0.0069023 0
78.0862 -0.407683 0
77.8869 -0.109776 0
78.1594 -0.134441 0
77.8706 -0.185835 0
78.3362 -0.171695 0
77.8612 -0.11178 0
78.6644 -0.157001 0
77.9054 -0.317729 0
79.143 -0.113479 0
77.8754 -0.113887 0
78.6379 -0.367566 0
84.9784 -2.16218 0
77.8549 0.0116622 0
77.8512 0.0511344 0
77.8548 0.0250251 0
77.873 0.140891 0
77.8667 0.0225373 0
77.8724 0.189152 0
77.9423 0.0494838 0
77.8715 0.145059 0
77.9069 0.0322617 0
77.8325 0.145142 0
78.2217 0.16345 0
77.9408 1.13022 0
78.0948 0.0679836 0
77.8842 0.176655 0
78.2901 0.354335 0
86.0384 -0.00236848 0
86.0418 -9.05255e-05 0
86.0499 -0.00340107 0
86.0508 -0.00452073 0
86.0546 9.50282e-05 0
86.0623 -0.00311794 0
86.0642 -0.00651674 0
86.0652 -0.00485748 0
86.0692 -0.000176181 0
86.0759 -0.00612735 0
86.0761 -0.0062509 0
86.0789 7.63553e-05 0
86.0876 -0.00643347 0
86.0882 -0.00864704 0
86.0891 -0.00605767 0
86.0926 -0.000376869 0
86.0986 -0.00797565 0
86.0987 -0.00719907 0
86.1013 -0.000203084 0
86.1106 -0.0100375 0
86.1108 -0.0110034 0
86.1123 -0.00648032 0
86.1172 -8.97554e-05 0
86.1215 -0.014154 0
86.1252 -0.00926645 0
86.1337 -0.000967594 0
86.1364 -0.0156449 0
86.1367 -0.0149553 0
86.1415 -0.0102636 0
86.1465 -0.00057353 0
86.1488 -0.0169696 0
86.1538 -0.0109341 0
86.1586 -0.00031108 0
86.1627 -0.0191127 0
86.1675 -0.0142265 0
86.1747 -0.0221269 0
86.1768 -0.000289494 0
86.1823 -0.0165152 0
86.1859 -0.0103325 0
86.1936 -0.000967145 0
86.1982 -0.0237153 0
86.2146 -0.0176953 0
86.2013 -0.0193357 0
86.2149 -0.0014177 0
86.2224 -0.012907 0
86.2177 -0.0237216 0
86.2427 -0.016049 0
86.2371 -0.0208061 0
86.2372 -0.0275008 0
86.2473 -0.0347474 0
86.2651 -0.0216716 0
86.2789 -0.0302789 0
86.2577 -0.0265131 0
86.2724 -0.038876 0
86.2867 -0.0303846 0
86.2852 -0.0292412 0
86.2931 -0.0407426 0
86.321 -0.0361184 0
86.3038 -0.0330671 0
86.3136 -0.0438349 0
86.3317 -0.0497731 0
86.3346 -0.0368845 0
86.36 -0.0468252 0
86.3386 -0.0402857 0
86.3621 -0.0156357 0
86.3652 -0.0505667 0
86.384 -0.0470561 0
86.3768 -0.0530106 0
86.3853 -0.0138992 0
86.3908 -0.0561381 0
86.4067 -0.0635857 0
86.4235 -0.0359963 0
86.4197 -0.0381487 0
86.4052 -0.0523844 0
86.439 -0.0684968 0
86.4375 -0.0288743 0
86.4694 -0.0617662 0
86.4548 -0.0401123 0
86.4897 -0.00189662 0
86.4776 -0.0694674 0
86.493 -0.0824825 0
86.5259 -0.0713374 0
86.5451 -0.0554021 0
86.4995 -0.0438576 0
86.5348 -0.0822831 0
86.5717 -0.0560674 0
86.5663 -0.0872907 0
86.5427 -0.0325 0
86.5782 -0.0780852 0
86.5951 -0.0287278 0
86.5934 -0.0917701 0
86.6221 -0.106695 0
86.658 -0.0642428 0
86.6494 -0.0890672 0
86.6224 -0.0413472 0
86.6906 -0.11608 0
86.6348 -0.032436 0
86.6683 -0.115064 0
86.7366 -0.128629 0
86.7519 -0.0903779 0
86.7691 -0.114113 0
86.7262 -0.108085 0
86.7532 -0.117711 0
86.7195 -0.0529245 0
86.7988 -0.136283 0
86.8255 -0.149557 0
86.8616 -0.09935 0
86.7792 -0.0745064 0
86.8192 -0.128594 0
86.8426 -0.15305 0
86.8052 -0.0301691 0
86.9154 -0.162173 0
86.9297 -0.181825 0
86.9734 -0.111435 0
86.8809 -0.100743 0
86.9435 -0.153426 0
86.9665 -0.181167 0
86.9054 -0.0318521 0
86.9858 -0.210185 0
87.0384 -0.225466 0
87.0541 -0.159839 0
87.0487 -0.184017 0
87.1039 -0.16814 0
87.0811 -0.233291 0
87.0841 -0.061521 0
87.0921 -0.218981 0
87.1687 -0.222361 0
87.1421 -0.0712892 0
87.2386 -0.263919 0
87.2666 -0.243378 0
87.2468 -0.153295 0
87.3129 -0.118046 0
87.2436 -0.269605 0
87.2833 -0.297985 0
87.2823 -0.0610025 0
87.3579 -0.298055 0
87.4097 -0.306673 0
87.3256 -0.220344 0
87.3927 -0.135508 0
87.4312 -0.183903 0
87.4429 -0.351492 0
87.4803 -0.117429 0
87.5093 -0.324827 0
87.542 -0.318372 0
87.5693 -0.372738 0
87.5143 -0.00353862 0
87.6719 -0.370167 0
87.5507 -0.286106 0
87.6752 -0.256587 0
87.7482 -0.29975 0
87.7224 -0.408181 0
87.7797 -0.412359 0
87.6358 -0.0925514 0
87.8166 -0.397675 0
87.8471 -0.459877 0
87.8596 -0.4429 0
87.9482 -0.101103 0
87.8413 -0.35073 0
88.0187 -0.506144 0
88.0637 -0.382751 0
87.9817 -0.321607 0
88.0772 -0.534213 0
88.0642 -0.528586 0
87.9372 -0.0906597 0
88.1676 -0.584916 0
88.2043 -0.548184 0
88.3772 -0.105646 0
88.3035 -0.60151 0
88.1461 -0.420999 0
88.3991 -0.382459 0
88.4653 -0.492649 0
88.3567 -0.545532 0
88.3856 -0.649553 0
88.4325 -0.233153 0
88.5565 -0.622954 0
88.5158 -0.721197 0
88.7056 -0.728847 0
88.6485 -0.0103155 0
88.6526 -0.602088 0
88.7188 -0.753998 0
88.5447 -0.18709 0
88.783 -0.793234 0
88.8688 -0.455398 0
88.8299 -0.829668 0
89.0272 -0.253685 0
88.9953 -0.710765 0
88.9653 -0.838685 0
88.8892 -0.130525 0
89.1086 -0.864379 0
89.2886 -0.840334 0
89.1282 -0.718651 0
89.1709 -0.431906 0
89.3249 -0.966915 0
89.3208 -0.378364 0
89.4782 -0.0644279 0
89.2624 -0.758799 0
89.4413 -0.954025 0
89.5323 -1.02667 0
89.5455 -0.319317 0
89.6727 -0.882139 0
89.8325 -0.964963 0
89.6179 -0.108229 0
89.9805 -0.935813 0
89.8984 -1.04881 0
89.7475 -0.776913 0
89.8021 -0.372411 0
89.9174 -0.434206 0
90.0532 -1.05058 0
89.9658 -0.00555237 0
90.163 -1.12143 0
90.2998 -1.0592 0
90.2559 -1.11782 0
90.2106 -0.238394 0
90.3583 -0.90682 0
90.6136 -0.912898 0
90.1769 -0.00367026 0
90.7091 -1.08765 0
90.8849 -0.916501 0
90.523 -0.665707 0
90.3395 -0.271963 0
90.8839 -1.03861 0
90.5063 -0.336262 0
90.3103 -0.0137526 0
90.8049 -0.690382 0
91.1478 -0.93482 0
91.3146 -0.86781 0
90.4861 -0.0633622 0
91.2576 -0.580506 0
91.4024 -0.769421 0
90.3474 0.0375194 0
91.5435 -0.752478 0
91.7304 -0.618234 0
91.343 -0.197309 0
90.1038 0.0113085 0
91.8865 -0.388566 0
91.0116 0.225882 0
91.2447 0.33778 0
91.7561 -0.240345 0
91.5313 0.0153936 0
92.2135 0.00490594 0
90.2272 0.386026 0
92.199 -0.0972652 0
91.7446 0.465224 0
92.3958 0.550274 0
90.1438 0.113332 0
92.3474 1.24896 0
92.1184 1.47531 0
88.7845 0.199447 0
92.5727 0.946098 0
92.4692 1.41866 0
90.1325 1.49843 0
89.8845 0.71671 0
91.4128 1.15045 0
92.3666 1.94827 0
89.0326 0.333307 0
91.8769 2.83149 0
92.5441 2.19312 0
92.5573 2.41831 0
88.2791 1.42019 0
90.9072 2.95202 0
91.9295 3.21781 0
88.2615 0.234177 0
91.7469 3.71577 0
91.3991 3.58962 0
90.4436 5.20244 0
86.0055 0.396328 0
91.5676 4.90981 0
89.5946 3.54141 0
87.7426 1.56839 0
87.3638 2.98679 0
91.3372 5.4111 0
90.2139 5.85132 0
86.4389 0.609137 0
90.2835 6.67386 0
86.0117 0.00231116 0
86.0148 8.65596e-05 0
86.0218 0.00278513 0
86.0224 0.00437472 0
86.0258 -0.000121776 0
86.0332 0.00301902 0
86.0349 0.00620493 0
86.0359 0.00462864 0
86.0397 0.000177157 0
86.0459 0.00576289 0
86.0462 0.00540632 0
86.0485 -0.000104541 0
86.0568 0.00626437 0
86.0573 0.00837702 0
86.0582 0.00587586 0
86.0614 0.0003563 0
86.0675 0.00807003 0
86.0676 0.0073952 0
86.0702 0.000206507 0
86.0794 0.00975752 0
86.0797 0.0108506 0
86.0892 0.0141124 0
86.0811 0.00633809 0
86.0936 0.00796142 0
86.1027 0.0130933 0
86.0941 0.00942996 0
86.1061 0.0147979 0
86.1108 0.010266 0
86.118 0.0168023 0
86.1085 0.00951574 0
86.1232 0.0112713 0
86.1319 0.0190552 0
86.1231 0.00965636 0
86.1446 0.0223395 0
86.1457 0.0221641 0
86.1501 0.0154903 0
86.1384 0.0111964 0
86.1522 0.0168149 0
86.1652 0.0155335 0
86.1558 0.0105805 0
86.1787 0.0287114 0
86.1753 0.0119013 0
86.1855 0.0179549 0
86.1738 0.0147026 0
86.1888 0.0239872 0
86.2089 0.0276675 0
86.2138 0.0163123 0
86.2044 0.0259852 0
86.2237 0.0291317 0
86.2256 0.0340401 0
86.2435 0.0162368 0
86.2368 0.0217707 0
86.2506 0.0303869 0
86.2643 0.043119 0
86.2674 0.020407 0
86.2739 0.0323169 0
86.2839 0.0455749 0
86.2929 0.0262276 0
86.275 0.0329705 0
86.3043 0.0501437 0
86.305 0.0493034 0
86.3112 0.0309433 0
86.322 0.022071 0
86.3322 0.0464677 0
86.2794 0.0136755 0
86.3494 0.0530407 0
86.3798 0.0645445 0
86.3625 0.0544497 0
86.3471 0.0315659 0
86.3907 0.0656717 0
86.3976 0.0569502 0
86.4126 0.0289487 0
86.3796 0.053172 0
86.4191 0.0608348 0
86.4355 0.0699635 0
86.3858 0.016398 0
86.4237 0.0506759 0
86.4688 0.0821858 0
86.4322 0.0411586 0
86.4792 0.070541 0
86.5096 0.0867237 0
86.4834 0.0638043 0
86.5025 0.0259131 0
86.5185 0.0769933 0
86.5366 0.0877927 0
86.5174 0.0219498 0
86.5613 0.0977486 0
86.525 0.0724565 0
86.5814 0.0799423 0
86.5421 0.0558706 0
86.5953 0.106875 0
86.6545 0.128932 0
86.6111 0.0322649 0
86.6105 0.0883427 0
86.6821 0.136637 0
86.6563 0.0989 0
86.5993 0.0405694 0
86.6977 0.128886 0
86.7201 0.13511 0
86.6773 0.0334351 0
86.7213 0.0582314 0
86.7519 0.118411 0
86.7714 0.157982 0
86.6986 0.0836308 0
86.8022 0.150918 0
86.8249 0.163938 0
86.8258 0.0545858 0
86.8014 0.0988485 0
86.8741 0.183078 0
86.8682 0.155651 0
86.7651 0.0507537 0
86.8934 0.175106 0
86.9434 0.187283 0
86.9165 0.0730402 0
86.9093 0.160905 0
87.0055 0.222485 0
86.9889 0.171409 0
86.8595 0.0553803 0
87.0295 0.207748 0
87.1 0.252383 0
86.9776 0.0717673 0
87.0842 0.200684 0
87.0609 0.0929042 0
87.1278 0.20976 0
87.0385 0.120005 0
87.1622 0.266181 0
87.2206 0.264771 0
87.1193 0.0719808 0
87.209 0.259337 0
87.2901 0.298222 0
87.2399 0.0757918 0
87.1774 0.219302 0
87.2775 0.253786 0
87.3397 0.299855 0
87.2143 0.0466447 0
87.3494 0.273068 0
87.456 0.353879 0
87.4318 0.295664 0
87.3634 0.0893953 0
87.5074 0.307855 0
87.3138 0.115929 0
87.3512 0.262418 0
87.499 0.341715 0
87.6116 0.384296 0
87.6215 0.39358 0
87.3324 0.00696975 0
87.7219 0.447199 0
87.7338 0.434799 0
87.7552 0.382469 0
87.6851 0.188144 0
87.7925 0.201461 0
87.7733 0.427973 0
87.533 0.116909 0
87.8974 0.479596 0
87.8864 0.471972 0
87.8922 0.424236 0
87.7776 0.12295 0
87.9743 0.469047 0
88.1049 0.584482 0
87.9499 0.219916 0
87.898 0.233142 0
88.0588 0.472845 0
88.229 0.604112 0
87.8145 0.145118 0
88.27 0.639704 0
88.3085 0.62157 0
88.1101 0.121851 0
88.4513 0.710029 0
88.4852 0.680546 0
88.5514 0.585784 0
88.3223 0.258916 0
88.2937 0.292642 0
88.4663 0.657349 0
88.1933 0.191101 0
88.6377 0.782433 0
88.6911 0.737166 0
88.6872 0.679773 0
88.411 0.103332 0
88.8671 0.799624 0
88.8846 0.81673 0
88.7177 0.458351 0
88.9787 0.643195 0
88.7347 0.373504 0
88.9403 0.783564 0
88.618 0.23639 0
89.1024 0.910798 0
89.1277 0.879874 0
88.6573 0.189061 0
89.1974 0.810317 0
89.3865 0.931319 0
89.2959 0.911251 0
89.1717 0.212238 0
89.6015 0.97279 0
89.6477 1.03925 0
89.1295 0.631434 0
89.532 0.770762 0
89.1886 0.384699 0
89.847 1.09183 0
89.3655 0.118498 0
89.9123 1.05973 0
89.9057 1.00325 0
89.1798 0.095102 0
89.8327 0.907916 0
90.2375 1.06948 0
90.3322 1.07633 0
89.7749 0.269713 0
90.4074 1.04778 0
90.4583 1.11771 0
89.7564 0.684226 0
90.463 0.731564 0
89.9363 0.260978 0
90.6293 1.11233 0
89.962 0.0958384 0
90.7792 1.03355 0
90.8701 1.01518 0
89.7863 0.0700309 0
90.6837 0.83865 0
91.1657 0.93668 0
91.3312 0.870907 0
90.2307 0.165405 0
91.1634 0.815384 0
91.4723 0.81635 0
90.7791 0.710505 0
91.2551 0.391505 0
90.3163 0.10078 0
91.2357 0.731417 0
90.3316 0.0354802 0
91.7214 0.704515 0
91.8092 0.556457 0
90.2252 0.037366 0
91.5078 0.251693 0
91.9603 0.268107 0
92.1504 0.131093 0
90.3369 -0.104911 0
92.2409 -0.0757429 0
92.2859 -0.210885 0
90.4876 -0.285754 0
92.3013 -0.244394 0
91.4991 -0.676698 0
90.7596 -0.112883 0
90.5634 -0.0133512 0
92.4367 -0.538184 0
92.1967 -0.925943 0
92.625 -1.11012 0
90.2273 -0.00772585 0
91.907 -1.37069 0
92.6257 -1.84274 0
90.1893 -0.129799 0
91.7418 -1.33557 0
92.6018 -2.37925 0
91.1875 -1.79469 0
90.1701 -0.672242 0
92.412 -2.7244 0
92.2734 -3.01497 0
91.1424 -1.14398 0
90.5987 -3.1647 0
88.5902 -2.60069 0
91.9171 -3.04572 0
88.9915 -0.411079 0
91.904 -3.99448 0
89.3701 7.26732 0
90.0918 6.50138 0
84.7614 1.9212 0
89.2682 7.22288 0
87.056 6.60743 0
88.6143 7.85081 0
85.3429 0.755906 0
87.6468 8.05076 0
86.4889 7.92175 0
84.116 0.959761 0
86.5599 8.44648 0
91.8163 -4.40895 0
89.2319 -0.254979 0
91.5534 -4.75081 0
90.3282 -5.14082 0
89.7774 -4.42734 0
88.3545 -0.26965 0
90.568 -5.72914 0
85.2766 7.71417 0
89.9246 -6.99617 0
88.1102 -1.4029 0
89.6055 -6.76219 0
88.7511 -7.71982 0
82.9794 2.35585 0
88.3198 -7.57473 0
89.5148 -4.23906 0
88.8066 -6.8658 0
86.9658 -5.08153 0
86.0343 -0.837128 0
87.8795 -6.9701 0
87.0975 -7.37555 0
84.6584 8.13993 0
87.1662 -7.38822 0
86.8563 -0.45491 0
86.1498 -7.73635 0
85.6411 -8.43848 0
85.3646 -0.562947 0
84.5644 -8.58007 0
85.0685 -6.29949 0
83.2337 -0.65236 0
83.5627 -8.73092 0
83.6432 -4.84193 0
85.3294 -3.8172 0
84.1047 -7.47586 0
83.0093 -7.82359 0
85.6418 4.37891 0
82.0927 0.528256 0
85.0568 2.92815 0
83.7341 -0.0750895 0
82.466 -8.48612 0
84.2878 7.70948 0
81.825 0.382979 0
83.7277 6.5579 0
81.6113 -8.35032 0
83.3122 -1.70817 0
80.9245 -6.09619 0
83.7116 8.78639 0
80.7344 2.01564 0
83.6137 8.71172 0
81.4326 7.2637 0
81.0192 0.410063 0
82.0491 7.63868 0
81.5217 -6.34305 0
82.8337 -0.470605 0
80.7676 -8.478 0
80.7885 -8.24548 0
82.4163 8.20361 0
80.5203 7.82036 0
80.3459 0.0418641 0
81.5651 8.07381 0
79.7545 5.05733 0
80.3402 2.27657 0
79.8561 -8.42669 0
80.8044 -1.09193 0
80.1872 -8.30137 0
79.398 8.27026 0
79.2418 -7.69889 0
79.9565 -1.07343 0
79.5767 -3.38427 0
77.9951 -7.39509 0
81.0107 -4.08971 0
77.8576 -7.15289 0
79.4728 -0.290055 0
76.9504 -6.8337 0
79.1336 2.85344 0
79.735 0.45976 0
78.9824 6.94488 0
79.1494 0.117565 0
78.7711 8.14806 0
78.4939 7.64655 0
78.8444 0.185939 0
77.748 6.69297 0
78.6354 0.133619 0
78.333 -6.39285 0
79.4706 -0.574252 0
79.551 6.01916 0
77.8579 0.733804 0
77.3058 6.28449 0
76.8386 -6.79421 0
79.5823 -0.228447 0
75.2231 -5.81071 0
77.856 -0.441056 0
76.0445 -5.71833 0
78.4262 2.54047 0
77.8519 0.121166 0
79.0577 -5.2028 0
77.853 -0.113001 0
75.3517 -5.3832 0
76.7236 5.67043 0
76.7647 -4.24848 0
77.8607 -0.240908 0
75.6641 -4.6121 0
77.7805 3.13159 0
75.6448 1.98722 0
76.2352 4.90394 0
77.5759 -0.982467 0
75.5034 -5.11022 0
77.7943 0.402666 0
76.1392 6.61676 0
77.5731 -2.37021 0
77.8544 -0.0840737 0
75.1776 -4.61028 0
75.8755 5.91132 0
77.7955 0.71665 0
75.8452 4.62071 0
75.5645 4.55977 0
77.7865 0.382155 0
74.7741 4.06195 0
74.323 -4.14033 0
77.8242 -0.294327 0
74.0233 -4.13298 0
76.4319 -1.96863 0
77.8432 -0.199862 0
73.4033 -2.81759 0
74.8277 5.05288 0
77.7147 0.618916 0
76.0929 3.23784 0
74.0183 -2.55877 0
77.723 -0.312723 0
73.3665 -2.33063 0
73.7206 3.71875 0
77.7312 0.264031 0
74.1236 3.50212 0
74.4263 2.85736 0
77.8514 0.0340671 0
73.5897 3.04343 0
74.7231 -1.50708 0
77.6542 -0.538774 0
74.0078 -1.32828 0
72.8265 -0.844803 0
76.9517 -0.920982 0
72.8766 -0.71546 0
76.6477 0.957168 0
77.7726 0.0796526 0
75.7101 2.42346 0
73.3715 2.452 0
77.6217 0.0588568 0
72.9491 1.54854 0
77.319 -0.234411 0
77.833 -0.11285 0
72.8754 -0.23513 0
73.4025 -0.092285 0
77.7948 -0.0659244 0
75.6415 0.30673 0
73.5707 0.52484 0
77.8128 -0.0617751 0
76.9463 -5.63289 0
77.8836 -0.431924 0
77.836 0.13391 0
77.7571 6.85314 0
78.6871 -7.70458 0
81.735 -0.940128 0
80.1815 0.992632 0
81.329 8.57767 0
77.7756 0.2801 0
74.2774 4.8351 0
73.7671 -2.82507 0
77.7959 -0.203077 0
77.8294 -0.573643 0
77.3518 -3.65335 0
77.8785 0.800763 0
77.8941 0.198023 0
77.7833 -0.000154929 0
73.444 2.04629 0
79.1074 0.464699 0
78.2388 1.57071 0
78.5514 -1.36995 0
80.002 -0.687745 0
85.4516 -1.26684 0
85.0365 -8.42615 0
86.9091 8.0455 0
84.9939 0.467878 0
77.6142 1.6593 0
79.3167 7.96526 0
78.2659 -7.0499 0
79.0399 -2.3065 0
76.7533 -1.45626 0
74.4094 -0.218566 0
75.9147 5.80577 0
77.926 1.88435 0
77.7698 -1.78533 0
74.5484 -4.61562 0
91.3062 -5.38395 0
88.0434 -0.661624 0
87.6249 0.792528 0
91.7435 4.49318 0
77.8732 -0.814205 0
77.8663 -0.0433966 0
77.8501 0.148769 0
78.7755 0.753796 0
82.7766 0.733919 0
82.4091 4.08946 0
80.9148 -1.98164 0
83.9464 -1.73837 0
81.3431 4.87743 0
84.2218 8.27133 0
83.0629 -8.64752 0
82.226 -1.91268 0
86.2091 1.60636 0
87.2866 5.01341 0
85.8625 -2.78268 0
86.9939 -0.0431045 0
90.1376 -0.257943 0
92.5876 -1.35585 0
92.4288 0.562813 0
89.3396 0.0292491 0
90.2987 0.00170476 0
91.8519 0.535584 0
91.6284 -0.52318 0
90.4482 0.0450622 0
78.8289 -1.44256 0
78.3209 -0.572906 0
78.2259 1.2339 0
78.9948 0.945529 0
78.08 1.2221 0
77.86 0.238586 0
77.8503 -0.107873 0
78.0169 -1.12325 0
89.0361 0.957989 0
90.2629 1.89575 0
89.3559 -1.15253 0
89.5573 -0.172376 0
75.7767 -0.957337 0
77.8122 -0.155436 0
77.3655 -0.439719 0
77.8218 -0.372603 0
77.8306 0.206654 0
77.7759 0.966899 0
90.9445 0.958681 0
90.0997 0.150085 0
90.2496 -0.00298015 0
90.6716 -1.04285 0
81.3707 -0.0407309 0
80.623 -2.81377 0
81.6617 1.79762 0
80.4019 0.446922 0
77.5954 4.02839 0
77.0441 7.28826 0
76.8094 -6.23533 0
78.0795 -3.21372 0
78.5918 -2.10331 0
77.354 -2.22413 0
77.6736 4.62143 0
78.0352 2.21923 0
90.457 0.0581408 0
90.1927 0.147191 0
90.3708 -0.0543886 0
91.3487 0.0671285 0
79.4649 -5.40198 0
80.5343 -5.23996 0
80.1376 4.62286 0
80.6326 8.4974 0
78.8358 -3.96459 0
79.9978 -2.30625 0
79.8297 3.10663 0
79.047 1.53063 0
90.1694 1.13764 0
89.5981 0.139476 0
89.838 -0.00965774 0
89.7436 -1.02416 0
77.1693 1.01061 0
77.8263 0.0308344 0
90.3172 -0.0519348 0
90.9725 -0.329839 0
90.6798 0.232374 0
90.148 0.036422 0
78.651 -0.95302 0
78.2007 -1.32773 0
78.9311 1.73521 0
78.1094 0.735412 0
77.8723 -0.146656 0
78.0474 -0.696119 0
77.9057 0.315377 0
77.8486 0.136502 0
73.8834 1.70765 0
76.7849 1.52053 0
86.6116 -3.14494 0
89.9169 -6.34487 0
90.8678 5.80392 0
86.3247 2.27162 0
76.6067 -2.30232 0
74.5141 -2.88856 0
88.9127 0.153958 0
89.1919 0.877152 0
88.1953 0.076214 0
88.833 0.837851 0
89.2089 -0.855336 0
89.0444 -0.139089 0
88.589 -0.701812 0
88.503 -0.0123394 0
90.0058 -0.210276 0
90.1241 -0.608532 0
89.968 0.383373 0
89.7225 0.00647019 0
77.8302 0.180342 0
77.5944 0.536929 0
76.2819 0.452255 0
73.981 0.843214 0
77.7349 -0.247725 0
77.8179 -0.170745 0
77.2619 0.275739 0
77.1746 -0.74607 0
92.4107 -2.77879 0
89.2839 -1.75792 0
90.2587 2.2364 0
92.5726 1.65407 0
77.9542 -0.0645571 0
78.0327 -0.366515 0
77.8672 0.0506717 0
78.189 0.260329 0
89.403 -0.202831 0
89.4233 -0.528128 0
89.4487 0.352438 0
89.0509 0.113936 0
88.0075 0.168731 0
88.1959 0.529706 0
88.2206 -0.620595 0
88.1025 -0.151694 0
78.3248 -0.896893 0
79.1657 -2.12427 0
78.6383 1.60662 0
78.2969 1.26949 0
78.9243 2.86944 0
77.4147 1.84503 0
77.958 -1.91685 0
78.5667 -2.78089 0
90.8137 -0.555384 0
91.7722 0.258141 0
91.9455 -0.248294 0
91.2364 0.60031 0
77.5675 -1.14362 0
77.6735 -1.36041 0
77.7174 1.079 0
77.1875 1.30093 0
88.0231 0.55266 0
87.7163 0.167438 0
87.7805 -0.102583 0
87.9584 -0.471862 0
84.7532 4.25292 0
86.7265 7.10581 0
86.2214 -8.36584 0
85.7778 -3.33613 0
74.9874 -3.40919 0
77.3218 -3.50019 0
84.3817 -3.05097 0
85.0111 -1.0939 0
83.4015 0.451094 0
86.6555 3.10224 0
74.5659 4.60554 0
76.5155 2.72194 0
88.7487 -0.0515598 0
88.9274 -0.540665 0
88.8058 0.3594 0
88.7141 0.0978711 0
88.4729 -0.370225 0
88.2567 -1.51738 0
88.8047 2.09283 0
87.8356 0.272284 0
82.785 1.39021 0
81.0921 0.348632 0
82.1832 -0.333277 0
82.8197 -3.09851 0
90.6387 0.304258 0
90.9277 0.828285 0
91.0896 -0.902185 0
90.9739 -0.032264 0
81.8344 -3.81598 0
82.9086 -1.8304 0
82.1439 2.69902 0
84.6383 5.96421 0
87.5953 0.340794 0
87.4632 0.0649348 0
87.6493 -0.101307 0
87.5811 -0.35691 0
88.2135 -0.185796 0
88.3834 -0.00797194 0
88.3553 0.100908 0
88.1822 0.43636 0
79.6883 0.494447 0
79.4543 1.29701 0
79.7 -1.14339 0
80.5137 -0.315266 0
81.1502 2.81325 0
79.5972 1.94123 0
78.9859 -2.82314 0
78.1879 -2.84904 0
90.1747 -0.491938 0
89.9257 -0.283118 0
89.7481 0.381512 0
90.6788 0.643808 0
79.5633 3.83023 0
80.0716 2.55669 0
79.0928 -0.821481 0
78.9358 -0.291554 0
78.7876 0.264575 0
79.4579 0.885781 0
76.4018 -0.870679 0
77.3984 -1.34249 0
91.7831 -3.67067 0
89.3366 -2.07635 0
88.8072 3.75369 0
92.1703 3.73665 0
77.8098 -0.864593 0
77.8705 -0.140846 0
77.804 0.200606 0
77.8837 0.842464 0
78.1276 0.0876492 0
78.1429 0.622922 0
78.2814 -0.344045 0
78.4143 -0.0203622 0
75.2342 -0.266446 0
72.8916 0.151118 0
84.7546 3.21075 0
88.7619 2.97783 0
87.4692 -2.51167 0
88.0659 -4.96464 0
77.4185 2.05828 0
76.9981 1.14613 0
77.8528 -0.024732 0
77.5926 -0.0484928 0
80.0701 6.80319 0
78.0539 4.03914 0
79.7484 -4.28001 0
78.7371 -8.06708 0
77.2645 0.784521 0
77.7225 0.424597 0
90.0037 0.510494 0
90.362 1.11616 0
90.0532 -1.02159 0
89.9831 -0.197107 0
87.7964 -0.122942 0
88.0149 -0.0823739 0
87.9888 0.0705514 0
87.8801 0.409602 0
92.3288 0.475971 0
91.1831 1.40541 0
91.233 -0.582455 0
92.4585 -0.736161 0