# vtk DataFile Version 3.0
Unstructured Grid for Triangles
ASCII
DATASET UNSTRUCTURED_GRID
POINTS 29612 DOUBLE
-2.72397e-05 1.23686e-06 0
-2.95789e-05 9.5838e-07 0
-2.77865e-05 -3.1235e-07 0
0.0002024 5e-05 0
0.000203975 4.9875e-05 0
0.000205 5e-05 0
0.000203975 -4.9875e-05 0
0.0002024 -5e-05 0
0.000205 -5e-05 0
0.00020295 4.975e-05 0
0.00020295 -4.975e-05 0
0.000201925 4.9625e-05 0
0.000201925 -4.9625e-05 0
-5.29747e-05 -4.79887e-05 0
-5.5e-05 -5e-05 0
-5.24e-05 -5e-05 0
-5.05983e-05 -4.84325e-05 0
-4.98e-05 -5e-05 0
-4.72e-05 -5e-05 0
-4.83864e-05 -4.87761e-05 0
-4.46e-05 -5e-05 0
-4.59e-05 -4.84239e-05 0
-4.29453e-05 -4.24878e-05 0
-4.47486e-05 -4.20717e-05 0
-4.41829e-05 -4.36609e-05 0
-5.12578e-05 -4.62101e-05 0
-4.93077e-05 -4.53594e-05 0
-5.0706e-05 -4.39006e-05 0
-4.19243e-05 -4.77545e-05 0
-4.40307e-05 -4.71837e-05 0
-4.3691e-05 -4.86724e-05 0
-5.16129e-05 -4.20948e-05 0
-4.95355e-05 -4.15432e-05 0
-5.11646e-05 -4.0128e-05 0
-3.94697e-05 -4.81197e-05 0
-4.06302e-05 -4.55143e-05 0
-5.37257e-05 -3.88197e-05 0
-5.31099e-05 -4.07297e-05 0
-5.23982e-05 -3.88328e-05 0
-3.70063e-05 -4.72956e-05 0
-3.68e-05 -5e-05 0
-3.5308e-05 -4.85302e-05 0
-5.072e-05 -3.7867e-05 0
-4.85506e-05 -3.83975e-05 0
-4.90949e-05 -3.59622e-05 0
-3.37127e-05 -4.84331e-05 0
-3.16e-05 -5e-05 0
-3.26495e-05 -4.7415e-05 0
-5.5e-05 -3.5e-05 0
-5.31201e-05 -3.70361e-05 0
-5.28367e-05 -3.46817e-05 0
-3.63898e-05 -4.48809e-05 0
-3.83315e-05 -4.60336e-05 0
-3.26269e-06 -4.15503e-05 0
-5.99662e-06 -4.09556e-05 0
-5.46944e-06 -4.29488e-05 0
-5.29747e-05 4.79887e-05 0
-5.5e-05 5e-05 0
-5.5e-05 4.75e-05 0
-5.5e-05 4.5e-05 0
-5.34834e-05 4.29171e-05 0
-5.26943e-05 4.42611e-05 0
-5.34026e-05 4.60176e-05 0
-5.31099e-05 4.07297e-05 0
-5.11672e-05 4.01178e-05 0
-5.16129e-05 4.20948e-05 0
-5.24e-05 5e-05 0
-5.05983e-05 4.84325e-05 0
-5.31201e-05 3.70361e-05 0
-5.072e-05 3.7867e-05 0
-5.23982e-05 3.88328e-05 0
-4.8341e-05 4.69132e-05 0
-4.83679e-05 4.87539e-05 0
-5.28367e-05 3.46817e-05 0
-5.5e-05 3.25e-05 0
-5.25657e-05 3.28474e-05 0
-4.98e-05 5e-05 0
-5.30382e-05 3.125e-05 0
-4.19243e-05 4.77545e-05 0
-4.40015e-05 4.7335e-05 0
-4.25917e-05 4.63678e-05 0
-4.35138e-05 2.62661e-05 0
-4.14982e-05 2.74462e-05 0
-4.35654e-05 2.85217e-05 0
-4.59e-05 4.84239e-05 0
-4.36852e-05 4.87027e-05 0
-4.46e-05 5e-05 0
-5.33308e-05 2.92503e-05 0
-5.5e-05 2.75e-05 0
-5.23377e-05 2.76953e-05 0
-4.25282e-05 4.46352e-05 0
-4.09368e-05 4.35728e-05 0
-4.06302e-05 4.55143e-05 0
0.0002009 4.95e-05 0
0.0001998 5e-05 0
0.000199875 4.9375e-05 0
0.00019885 4.925e-05 0
0.0001972 5e-05 0
0.000197825 4.9125e-05 0
0.0001968 4.9e-05 0
0.000195775 4.8875e-05 0
0.0001946 5e-05 0
0.00019475 4.875e-05 0
0.000193725 4.8625e-05 0
0.000192 5e-05 0
0.0001927 4.85e-05 0
0.000191675 4.8375e-05 0
0.00019065 4.825e-05 0
0.0001894 5e-05 0
0.000189625 4.8125e-05 0
0.0001886 4.8e-05 0
0.0001868 5e-05 0
0.000187575 4.7875e-05 0
0.00018655 4.775e-05 0
0.000185515 4.8575e-05 0
0.0001842 5e-05 0
0.0001845 4.75e-05 0
0.000185525 4.7625e-05 0
0.000182564 4.829e-05 0
0.0001816 5e-05 0
0.00018245 4.725e-05 0
0.000183475 4.7375e-05 0
0.000181425 4.7125e-05 0
0.000180295 4.82657e-05 0
0.000179 5e-05 0
0.000179375 4.6875e-05 0
0.0001804 4.7e-05 0
0.000178168 4.80619e-05 0
0.0001764 5e-05 0
0.000177325 4.6625e-05 0
0.00017835 4.675e-05 0
0.000176428 4.76631e-05 0
0.0001763 4.65e-05 0
0.0001738 5e-05 0
0.0001751 4.84164e-05 0
0.000175275 4.6375e-05 0
0.000174025 4.75632e-05 0
0.0001712 5e-05 0
0.000172615 4.78449e-05 0
0.0001722 4.6e-05 0
0.000173225 4.6125e-05 0
0.00017015 4.575e-05 0
0.000171243 4.7381e-05 0
0.000169554 4.79999e-05 0
0.0001686 5e-05 0
0.000167507 4.79751e-05 0
0.000168498 4.64861e-05 0
0.000166 5e-05 0
0.00016558 4.71459e-05 0
0.000167135 4.62887e-05 0
0.0001681 4.55e-05 0
0.00016605 4.525e-05 0
0.000167075 4.5375e-05 0
0.000164059 4.61599e-05 0
0.00016394 4.79552e-05 0
0.000162881 4.6615e-05 0
0.000162975 4.4875e-05 0
0.000165025 4.5125e-05 0
0.000164 4.5e-05 0
0.000161754 4.58641e-05 0
0.000161722 4.78101e-05 0
0.000159956 4.58294e-05 0
0.000160925 4.4625e-05 0
0.00016195 4.475e-05 0
0.000157667 4.60322e-05 0
0.000158875 4.4375e-05 0
0.000159194 4.80155e-05 0
0.0001599 4.45e-05 0
0.00015785 4.425e-05 0
0.000155808 4.56757e-05 0
0.000155647 4.76701e-05 0
0.000154059 4.66642e-05 0
0.000153756 4.50083e-05 0
0.000154839 4.50446e-05 0
0.000156825 4.4125e-05 0
0.000151954 4.80508e-05 0
0.000154052 4.8477e-05 0
0.000153 5e-05 0
0.000154775 4.3875e-05 0
0.000152142 4.56625e-05 0
0.000152821 4.45753e-05 0
0.00015375 4.375e-05 0
0.0001504 5e-05 0
0.000149644 4.85168e-05 0
0.000151787 4.43178e-05 0
0.000152725 4.3625e-05 0
0.000150675 4.3375e-05 0
0.0001517 4.35e-05 0
0.000148119 4.50887e-05 0
0.000148072 4.75757e-05 0
0.000146584 4.63516e-05 0
0.000150008 4.6396e-05 0
0.000149351 4.4543e-05 0
0.00015061 4.46252e-05 0
0.0001476 4.3e-05 0
0.000148625 4.3125e-05 0
0.000146492 4.82975e-05 0
0.000144888 4.73562e-05 0
0.000146676 4.44259e-05 0
0.000145255 4.53656e-05 0
0.000145652 4.38669e-05 0
0.000141401 4.79821e-05 0
0.0001426 5e-05 0
0.00014 5e-05 0
0.000144374 4.38862e-05 0
0.00014555 4.275e-05 0
0.0001435 4.25e-05 0
0.000144525 4.2625e-05 0
0.000142746 4.38121e-05 0
0.000141288 4.43191e-05 0
0.000141707 4.32778e-05 0
0.00013921 4.38992e-05 0
0.000140355 4.5932e-05 0
0.000138302 4.5922e-05 0
0.000142912 4.58869e-05 0
0.000140592 4.30037e-05 0
0.00014145 4.225e-05 0
0.000136458 4.5869e-05 0
0.000137106 4.4063e-05 0
0.0001394 4.2e-05 0
0.000138259 4.28915e-05 0
0.000137484 4.77094e-05 0
0.000139166 4.78902e-05 0
0.00013586 4.78984e-05 0
0.000133449 4.78649e-05 0
0.000134717 4.61848e-05 0
0.000137256 4.25134e-05 0
0.000135323 4.24541e-05 0
0.000136325 4.1625e-05 0
0.000136122 4.2876e-05 0
0.000131206 4.47284e-05 0
0.000133168 4.56738e-05 0
0.000131773 4.65243e-05 0
0.000134756 4.40343e-05 0
0.000132747 4.36463e-05 0
0.000133483 4.26786e-05 0
0.000131081 4.1867e-05 0
0.000132382 4.22815e-05 0
0.000131507 4.3122e-05 0
0.000131059 4.80123e-05 0
0.00013325 4.125e-05 0
0.00012915 4.075e-05 0
0.00012982 4.18199e-05 0
0.000128915 4.26216e-05 0
0.000126366 4.47574e-05 0
0.000127331 4.30908e-05 0
0.000128781 4.44872e-05 0
0.000125336 4.28376e-05 0
0.000130218 4.31077e-05 0
0.000127894 4.16344e-05 0
0.000124774 4.69608e-05 0
0.000127668 4.64148e-05 0
0.000126591 4.8331e-05 0
0.000126722 4.18415e-05 0
0.000125768 4.11931e-05 0
0.000124326 4.13546e-05 0
0.00012505 4.025e-05 0
0.000122408 4.50118e-05 0
0.000120276 4.47432e-05 0
0.00012139 4.32235e-05 0
0.000124336 4.44132e-05 0
0.000123056 4.27595e-05 0
0.000122977 4.09049e-05 0
0.00012185 4.69217e-05 0
0.000122676 4.85947e-05 0
0.000120525 4.86094e-05 0
0.000121479 4.13153e-05 0
0.000119547 4.24221e-05 0
0.000120249 4.07448e-05 0
0.000119925 3.9625e-05 0
0.000119346 4.06114e-05 0
0.000117479 4.47279e-05 0
0.000114726 4.45259e-05 0
0.00011571 4.27814e-05 0
0.000119443 4.66611e-05 0
0.000117447 4.21596e-05 0
0.000118421 4.0752e-05 0
0.000117409 4.04437e-05 0
0.000116775 4.70073e-05 0
0.0001179 4.855e-05 0
0.000115473 4.84802e-05 0
0.00011685 3.925e-05 0
0.000117875 3.9375e-05 0
0.000115454 4.00551e-05 0
0.0001148 3.9e-05 0
0.000115825 3.9125e-05 0
0.000111704 4.23398e-05 0
0.000113786 4.26731e-05 0
0.000112589 4.43871e-05 0
0.000113234 4.06671e-05 0
0.000114754 4.13371e-05 0
0.0001106 4.42326e-05 0
0.000109703 4.24261e-05 0
0.00011275 3.875e-05 0
0.000113775 3.8875e-05 0
0.000110211 4.80875e-05 0
0.000108244 4.71951e-05 0
0.000109312 4.58413e-05 0
0.000111755 3.99116e-05 0
0.00010944 3.92972e-05 0
0.000110415 4.05876e-05 0
0.000108839 4.07536e-05 0
0.000106472 4.76905e-05 0
0.000107274 4.57868e-05 0
0.000108011 3.92415e-05 0
0.000106885 4.04365e-05 0
0.000106625 3.88708e-05 0
0.000105286 4.19254e-05 0
0.000105055 3.95469e-05 0
0.000104215 4.39764e-05 0
0.000106346 4.40629e-05 0
0.000100945 4.51249e-05 0
0.000102825 4.5614e-05 0
0.000101189 4.68452e-05 0
0.000107625 3.8125e-05 0
0.000105575 3.7875e-05 0
0.0001066 3.8e-05 0
0.000103352 4.76905e-05 0
0.000101803 4.8465e-05 0
0.000103685 3.89398e-05 0
0.00010245 3.8825e-05 0
0.000103525 3.7625e-05 0
0.000101092 3.99779e-05 0
0.000101267 3.82619e-05 0
0.000101382 4.2025e-05 0
0.000103187 4.05286e-05 0
0.000103359 4.24605e-05 0
9.87383e-05 4.5447e-05 0
9.99411e-05 4.35161e-05 0
9.744e-05 4.33145e-05 0
0.00010045 3.725e-05 0
0.000101475 3.7375e-05 0
9.70845e-05 4.65215e-05 0
9.52614e-05 4.67664e-05 0
9.61768e-05 4.49944e-05 0
9.9729e-05 3.87704e-05 0
9.78901e-05 3.9598e-05 0
9.85823e-05 3.81492e-05 0
9.62289e-05 3.93709e-05 0
9.74259e-05 3.81279e-05 0
9.7375e-05 3.6875e-05 0
9.63045e-05 3.76631e-05 0
9.58e-05 5e-05 0
9.32e-05 5e-05 0
9.47542e-05 4.8457e-05 0
9.49675e-05 3.85246e-05 0
9.36214e-05 3.89472e-05 0
9.40006e-05 3.74906e-05 0
9.66411e-05 4.12573e-05 0
9.44241e-05 4.07079e-05 0
9.03569e-05 4.24993e-05 0
9.21701e-05 4.02409e-05 0
9.27439e-05 4.27744e-05 0
8.89795e-05 4.09067e-05 0
9.03071e-05 4.0248e-05 0
9.25447e-05 3.77721e-05 0
9.3275e-05 3.6375e-05 0
9.07708e-05 3.87127e-05 0
9.11303e-05 3.70839e-05 0
9.11933e-05 4.55145e-05 0
9.30678e-05 4.73279e-05 0
9.11886e-05 4.82603e-05 0
8.87724e-05 3.88076e-05 0
8.99595e-05 3.75116e-05 0
9.02e-05 3.6e-05 0
8.89241e-05 3.6954e-05 0
8.36977e-05 4.59472e-05 0
8.36223e-05 4.83578e-05 0
8.20467e-05 4.74142e-05 0
8.71227e-05 4.03557e-05 0
8.61e-05 3.55e-05 0
8.68368e-05 3.65714e-05 0
8.5484e-05 3.6588e-05 0
8.47735e-05 4.02845e-05 0
8.23121e-05 4.21599e-05 0
8.26582e-05 3.98147e-05 0
8.46943e-05 4.2454e-05 0
8.38832e-05 3.78613e-05 0
8.35569e-05 3.63808e-05 0
8.44098e-05 3.6291e-05 0
8.5075e-05 3.5375e-05 0
8.51465e-05 4.77163e-05 0
8.3025e-05 3.5125e-05 0
8.22824e-05 3.68659e-05 0
8.1446e-05 3.57362e-05 0
8.05884e-05 3.71794e-05 0
7.53471e-05 4.77524e-05 0
7.38313e-05 4.73927e-05 0
7.39102e-05 4.61526e-05 0
7.9826e-05 3.58588e-05 0
7.88607e-05 3.76287e-05 0
7.81733e-05 3.57987e-05 0
8.16783e-05 3.84471e-05 0
8.07975e-05 4.04095e-05 0
7.52138e-05 4.04775e-05 0
7.67682e-05 4.17043e-05 0
7.49617e-05 4.21803e-05 0
7.52903e-05 3.84008e-05 0
7.38293e-05 3.93136e-05 0
[...]
CELL_DATA 58684
VECTORS velocity DOUBLE
73.6034 0.337668 0
85.2977 -0.000367934 0
85.2707 0.000347564 0
85.2997 -0.000349777 0
85.2712 0.000193415 0
85.3061 -0.00156854 0
85.277 0.00140901 0
77.8325 -0.0053641 0
77.8237 -0.0221561 0
77.8447 -0.00672706 0
77.8966 -0.0104176 0
77.9179 -0.405084 0
77.8185 -0.111709 0
77.9757 -0.133065 0
77.8089 -0.188845 0
78.1074 -0.17593 0
77.8303 -0.111872 0
78.3594 -0.155748 0
77.8176 -0.319383 0
78.7688 -0.118853 0
77.8486 -0.112245 0
78.3458 -0.365066 0
84.1782 -2.17448 0
77.8448 0.0108554 0
77.8286 0.0529091 0
77.8455 0.0254211 0
77.8231 0.140451 0
77.8234 0.0213546 0
77.8308 0.189913 0
77.8482 0.0495961 0
77.8427 0.145278 0
77.8272 0.0300972 0
77.8015 0.148707 0
78.0266 0.165573 0
77.757 1.12768 0
77.9337 0.0647472 0
77.8577 0.174805 0
78.0718 0.355972 0
85.3095 -0.00162926 0
85.3118 -0.000738234 0
85.3203 -0.00312828 0
85.3241 -0.00401212 0
85.3267 -0.00141024 0
85.3329 -0.00391786 0
85.336 -0.00549919 0
85.3384 -0.00395076 0
85.3413 -0.001055 0
85.3474 -0.00611517 0
85.3493 -0.00571178 0
85.3514 -0.00142051 0
85.3584 -0.00681806 0
85.3598 -0.00785421 0
85.3613 -0.00571124 0
85.364 -0.00131889 0
85.3693 -0.00795716 0
85.3703 -0.00699264 0
85.3723 -0.00160671 0
85.3799 -0.00978672 0
85.3807 -0.0102487 0
85.3816 -0.006543 0
85.3859 -0.000896434 0
85.3894 -0.0124446 0
85.3928 -0.00889235 0
85.4 -0.00103117 0
85.4025 -0.0146832 0
85.4033 -0.0139826 0
85.4071 -0.0104207 0
85.4112 -0.00102425 0
85.4137 -0.0159122 0
85.4176 -0.0109921 0
85.4219 -0.00113994 0
85.4254 -0.0179517 0
85.4291 -0.0135742 0
85.4354 -0.0208078 0
85.4375 -0.000869368 0
85.4417 -0.0157404 0
85.4453 -0.00995191 0
85.452 -0.00153898 0
85.456 -0.0223055 0
85.4705 -0.017258 0
85.4584 -0.018169 0
85.4704 -0.00154252 0
85.4768 -0.0118909 0
85.473 -0.0225377 0
85.4947 -0.014647 0
85.4902 -0.0192969 0
85.4904 -0.0259544 0
85.4996 -0.0322561 0
85.5149 -0.0200906 0
85.5278 -0.0281746 0
85.5086 -0.0246652 0
85.522 -0.0357395 0
85.5345 -0.0274031 0
85.5328 -0.026846 0
85.5409 -0.0373368 0
85.5661 -0.0331897 0
85.5495 -0.0295619 0
85.5593 -0.0395403 0
85.575 -0.044744 0
85.5768 -0.0329653 0
85.5992 -0.0405376 0
85.5814 -0.0357195 0
85.5996 -0.0129665 0
85.6052 -0.0442902 0
85.6212 -0.0412394 0
85.6153 -0.0457964 0
85.6196 -0.0120026 0
85.6281 -0.0483745 0
85.6425 -0.0542216 0
85.6543 -0.0295583 0
85.6511 -0.0321386 0
85.6394 -0.0441177 0
85.6706 -0.0571767 0
85.6656 -0.0231116 0
85.6956 -0.0515441 0
85.6813 -0.0331266 0
85.7085 -0.00184898 0
85.7054 -0.0577704 0
85.7187 -0.0673705 0
85.7456 -0.0585183 0
85.7596 -0.0445515 0
85.7185 -0.0354166 0
85.7544 -0.0668066 0
85.7815 -0.0452842 0
85.7808 -0.0703552 0
85.7541 -0.0255981 0
85.7904 -0.0634167 0
85.7976 -0.0235916 0
85.8028 -0.0743165 0
85.8275 -0.0858368 0
85.8512 -0.0521834 0
85.8484 -0.0717804 0
85.8204 -0.0332907 0
85.8835 -0.0943474 0
85.83 -0.0267038 0
85.866 -0.0930321 0
85.9223 -0.106099 0
85.9309 -0.0752727 0
85.9455 -0.0940194 0
85.9106 -0.0889339 0
85.9349 -0.0977503 0
85.8993 -0.0432958 0
85.9727 -0.114262 0
85.9955 -0.126228 0
86.0204 -0.0853968 0
85.9508 -0.0624911 0
85.9892 -0.108835 0
86.0089 -0.129567 0
85.9694 -0.0259889 0
86.0686 -0.141528 0
86.0809 -0.158093 0
86.1145 -0.0997532 0
86.036 -0.0860688 0
86.0914 -0.134535 0
86.1114 -0.160266 0
86.0529 -0.028725 0
86.128 -0.185968 0
86.1728 -0.202271 0
86.1842 -0.145254 0
86.1807 -0.166673 0
86.2272 -0.155848 0
86.2096 -0.212991 0
86.2061 -0.057322 0
86.2176 -0.20122 0
86.2844 -0.208849 0
86.2579 -0.0682212 0
86.347 -0.251206 0
86.3717 -0.23303 0
86.3527 -0.147931 0
86.4113 -0.114911 0
86.35 -0.257426 0
86.3858 -0.285262 0
86.3825 -0.0586936 0
86.4534 -0.292279 0
86.5017 -0.30143 0
86.4238 -0.215373 0
86.4861 -0.13553 0
86.5222 -0.18041 0
86.5314 -0.346365 0
86.5652 -0.118005 0
86.5944 -0.32382 0
86.6247 -0.319362 0
86.6496 -0.374315 0
86.5972 -0.00478489 0
86.7484 -0.373784 0
86.6331 -0.287615 0
86.7511 -0.260095 0
86.8197 -0.3034 0
86.797 -0.414469 0
86.8529 -0.418676 0
86.7116 -0.0936234 0
86.8894 -0.405257 0
86.9177 -0.468828 0
86.9302 -0.450629 0
87.0111 -0.102764 0
86.9118 -0.356876 0
87.0864 -0.517589 0
87.1281 -0.38829 0
87.0494 -0.327006 0
87.142 -0.54399 0
87.1307 -0.539192 0
87.0006 -0.0921762 0
87.233 -0.596356 0
87.2695 -0.55857 0
87.4277 -0.105351 0
87.3655 -0.610144 0
87.2097 -0.427776 0
87.4534 -0.385951 0
87.5204 -0.495945 0
87.417 -0.551478 0
87.4503 -0.658818 0
87.4872 -0.234262 0
87.619 -0.627487 0
87.5764 -0.729458 0
87.7647 -0.732701 0
87.6941 -0.010665 0
87.7056 -0.60276 0
87.7763 -0.755217 0
87.5932 -0.185989 0
87.8414 -0.794615 0
87.9137 -0.453198 0
87.8864 -0.830968 0
88.0643 -0.251337 0
88.0496 -0.705693 0
88.0206 -0.833373 0
87.9279 -0.127121 0
88.1614 -0.857766 0
88.3341 -0.830087 0
88.1713 -0.710878 0
88.2061 -0.426271 0
88.3703 -0.953069 0
88.3513 -0.370222 0
88.4973 -0.0639432 0
88.3083 -0.748862 0
88.4859 -0.939269 0
88.5712 -1.00947 0
88.5667 -0.312208 0
88.7041 -0.865783 0
88.862 -0.945376 0
88.6362 -0.106446 0
89.0039 -0.915263 0
88.9235 -1.02557 0
88.7716 -0.75957 0
88.8165 -0.364273 0
88.9324 -0.424314 0
89.075 -1.02612 0
88.9745 -0.00606035 0
89.1791 -1.09381 0
89.3112 -1.03512 0
89.2682 -1.09103 0
89.2161 -0.231835 0
89.3669 -0.884995 0
89.6187 -0.893226 0
89.1792 -0.00399417 0
89.7072 -1.06263 0
89.8806 -0.897285 0
89.5247 -0.651313 0
89.3435 -0.263382 0
89.8778 -1.01674 0
89.5063 -0.32673 0
89.3104 -0.0123563 0
89.8054 -0.676119 0
90.1386 -0.918201 0
90.3038 -0.853769 0
89.486 -0.058592 0
90.2535 -0.569991 0
90.393 -0.757605 0
89.3529 0.0408783 0
90.533 -0.743552 0
90.7225 -0.611385 0
90.3433 -0.190418 0
89.119 0.0104834 0
90.8829 -0.385358 0
90.0207 0.232066 0
90.2572 0.345505 0
90.7576 -0.235389 0
90.5369 0.0217449 0
91.2228 0.0062471 0
89.2451 0.391547 0
91.2052 -0.09625 0
90.763 0.473612 0
91.4199 0.555542 0
89.1612 0.113961 0
91.3865 1.26486 0
91.1628 1.497 0
87.8395 0.202855 0
91.6097 0.95624 0
91.5191 1.43627 0
89.1771 1.51699 0
88.9169 0.728051 0
90.4455 1.16667 0
91.4242 1.97597 0
88.0886 0.336429 0
90.9394 2.87458 0
91.6025 2.22671 0
91.6182 2.45767 0
87.3655 1.43671 0
89.9745 2.99025 0
91.0031 3.26458 0
87.34 0.239332 0
90.8191 3.77206 0
90.4793 3.63654 0
89.5364 5.26593 0
85.1593 0.401149 0
90.6539 4.97604 0
88.6833 3.58228 0
86.8454 1.58508 0
86.4906 3.00968 0
90.4249 5.48502 0
89.3143 5.91534 0
85.5914 0.615647 0
89.3801 6.74722 0
85.2801 0.00156035 0
85.2822 0.000724492 0
85.2894 0.00261716 0
85.2929 0.00345593 0
85.2948 0.00138126 0
85.3006 0.00363453 0
85.3033 0.00494336 0
85.3055 0.00392612 0
85.3084 0.00105832 0
85.3139 0.0054527 0
85.3158 0.00515395 0
85.3173 0.00139588 0
85.324 0.00637858 0
85.3253 0.00742691 0
85.3267 0.00540225 0
85.3292 0.00131217 0
85.3344 0.0079121 0
85.3355 0.00699634 0
85.3375 0.0016093 0
85.345 0.00972526 0
85.3458 0.0101943 0
85.3538 0.0128651 0
85.3468 0.00650112 0
85.358 0.00799829 0
85.3653 0.0132048 0
85.3581 0.00923484 0
85.3692 0.0143429 0
85.373 0.0107623 0
85.3792 0.0166076 0
85.3708 0.00896951 0
85.3837 0.0115773 0
85.3914 0.0188671 0
85.3839 0.00923402 0
85.4027 0.0219467 0
85.4038 0.0212114 0
85.4079 0.0153737 0
85.3975 0.0111138 0
85.4094 0.0166465 0
85.4215 0.0157598 0
85.4131 0.0105526 0
85.4336 0.0280789 0
85.4305 0.0115022 0
85.4401 0.0181736 0
85.4292 0.014342 0
85.4428 0.0236753 0
85.4612 0.0271243 0
85.4653 0.0154218 0
85.457 0.0250914 0
85.4751 0.0286566 0
85.4768 0.0327522 0
85.4932 0.0159179 0
85.4866 0.0208653 0
85.4998 0.0291675 0
85.5126 0.0410551 0
85.5147 0.0193736 0
85.5218 0.0312009 0
85.5306 0.0427073 0
85.5375 0.023828 0
85.5217 0.0302907 0
85.5489 0.0463134 0
85.5498 0.0448388 0
85.5543 0.027708 0
85.5634 0.0198741 0
85.5731 0.0409794 0
85.5244 0.0127351 0
85.5896 0.046673 0
85.6173 0.0556747 0
85.6007 0.0473325 0
85.586 0.0278119 0
85.6268 0.0558003 0
85.6328 0.0485607 0
85.6424 0.0233024 0
85.6153 0.0452538 0
85.6515 0.0504007 0
85.6661 0.0578299 0
85.6186 0.0139602 0
85.6535 0.0414284 0
85.6958 0.0672047 0
85.6599 0.0339647 0
85.7045 0.058128 0
85.7301 0.0696019 0
85.7052 0.0512502 0
85.7174 0.0208386 0
85.7365 0.0610869 0
85.7531 0.0711445 0
85.7282 0.0178533 0
85.7736 0.0782721 0
85.7402 0.0573171 0
85.7892 0.0644718 0
85.7536 0.0447916 0
85.8014 0.0850905 0
85.8507 0.103718 0
85.8063 0.0262579 0
85.8101 0.0709857 0
85.8727 0.110301 0
85.8487 0.0795225 0
85.7975 0.0322168 0
85.8852 0.103955 0
85.903 0.110007 0
85.8596 0.0272059 0
85.8987 0.0491066 0
85.9277 0.0976823 0
85.9455 0.129791 0
85.8802 0.0684043 0
85.9703 0.126471 0
85.9881 0.137393 0
85.9827 0.0475496 0
85.9665 0.0841901 0
86.0292 0.15613 0
86.0224 0.133551 0
85.9313 0.0427981 0
86.0446 0.151371 0
86.0857 0.164619 0
86.059 0.065326 0
86.0569 0.139424 0
86.138 0.198098 0
86.1237 0.153034 0
86.0099 0.0477156 0
86.1582 0.187373 0
86.2191 0.232192 0
86.1097 0.0655653 0
86.2044 0.186288 0
86.1828 0.0865038 0
86.2426 0.196432 0
86.1642 0.109738 0
86.2731 0.249358 0
86.3239 0.253727 0
86.233 0.06867 0
86.315 0.247487 0
86.3876 0.289467 0
86.3399 0.074086 0
86.2867 0.20721 0
86.3759 0.247214 0
86.432 0.294844 0
86.3166 0.044304 0
86.4415 0.269418 0
86.5406 0.352936 0
86.5179 0.295344 0
86.4524 0.0890127 0
86.5895 0.309006 0
86.4086 0.113415 0
86.4437 0.258131 0
86.5816 0.342758 0
86.6888 0.389473 0
86.6976 0.399848 0
86.4239 0.00736134 0
86.7951 0.456085 0
86.8063 0.443685 0
86.8279 0.389753 0
86.7588 0.190836 0
86.8633 0.205862 0
86.8452 0.437046 0
86.6124 0.117999 0
86.9678 0.492099 0
86.956 0.483045 0
86.961 0.432684 0
86.8458 0.123902 0
87.0442 0.480221 0
87.1719 0.599076 0
87.0163 0.222008 0
86.9652 0.237024 0
87.1255 0.481499 0
87.2968 0.617299 0
86.8816 0.147429 0
87.336 0.653249 0
87.3749 0.63252 0
87.17 0.122952 0
87.5161 0.719574 0
87.5504 0.689406 0
87.6107 0.588785 0
87.3815 0.259521 0
87.3525 0.295416 0
87.5314 0.663679 0
87.2516 0.192898 0
87.6997 0.78882 0
87.753 0.740584 0
87.7479 0.678778 0
87.465 0.103898 0
87.9256 0.79905 0
87.9443 0.813877 0
87.7685 0.458278 0
88.0269 0.63888 0
87.7824 0.372125 0
87.9964 0.777362 0
87.6669 0.237811 0
88.1551 0.900855 0
88.1819 0.868853 0
87.7044 0.187236 0
88.2436 0.797185 0
88.4316 0.915648 0
88.3418 0.895542 0
88.2037 0.208935 0
88.6407 0.953283 0
88.6844 1.01736 0
88.1714 0.622432 0
88.5627 0.752482 0
88.2232 0.378855 0
88.8767 1.06693 0
88.3907 0.116818 0
88.9392 1.0337 0
88.9309 0.976306 0
88.2119 0.0921629 0
88.8605 0.884639 0
89.2518 1.04131 0
89.3429 1.04966 0
88.7879 0.26492 0
89.4165 1.02166 0
89.4637 1.08887 0
88.7789 0.668663 0
89.4679 0.714283 0
88.9459 0.254341 0
89.6288 1.08429 0
88.9697 0.0941094 0
89.7743 1.00861 0
89.8639 0.992813 0
88.7993 0.066879 0
89.6856 0.818473 0
90.1551 0.919211 0
90.3187 0.856076 0
89.2341 0.161088 0
90.1548 0.798521 0
90.4601 0.804392 0
89.7771 0.695462 0
90.2505 0.382399 0
89.3177 0.096155 0
90.2276 0.717431 0
89.3312 0.0340674 0
90.7107 0.696885 0
90.8008 0.549714 0
89.2262 0.0340569 0
90.508 0.244826 0
90.9597 0.265805 0
91.1539 0.128953 0
89.3444 -0.107356 0
91.2503 -0.0763451 0
91.301 -0.212527 0
89.4995 -0.290149 0
91.3176 -0.244861 0
90.5209 -0.687558 0
89.7625 -0.119703 0
89.5663 -0.0166255 0
91.4625 -0.540563 0
91.2272 -0.937449 0
91.6659 -1.12216 0
89.236 -0.00712935 0
90.9502 -1.38834 0
91.68 -1.86874 0
89.2059 -0.130674 0
90.7771 -1.35172 0
91.6646 -2.41675 0
90.2375 -1.81828 0
89.1939 -0.680813 0
91.4773 -2.76655 0
91.3421 -3.0605 0
90.1728 -1.16017 0
89.6722 -3.20832 0
87.6817 -2.62562 0
90.9902 -3.09121 0
88.0439 -0.413917 0
90.9823 -4.05288 0
88.4794 7.33445 0
89.1905 6.56838 0
83.9787 1.93479 0
88.3839 7.28633 0
86.2069 6.65171 0
87.7357 7.91054 0
84.5288 0.763743 0
86.7833 8.10286 0
85.65 7.96238 0
83.3575 0.964849 0
85.7132 8.49067 0
90.8993 -4.47277 0
88.2744 -0.257509 0
90.641 -4.81455 0
89.4251 -5.20148 0
88.8715 -4.48045 0
87.4307 -0.275452 0
89.6626 -5.79639 0
84.4742 7.74413 0
89.0261 -7.06712 0
87.2052 -1.41594 0
88.7139 -6.82515 0
87.8691 -7.78389 0
82.2757 2.36556 0
87.4444 -7.63263 0
88.6172 -4.28401 0
87.9298 -6.92492 0
86.1224 -5.11526 0
85.1855 -0.842144 0
87.0161 -7.02089 0
86.2521 -7.421 0
83.8603 8.16977 0
86.3166 -7.43547 0
85.9843 -0.459287 0
85.324 -7.77493 0
84.8168 -8.47598 0
84.545 -0.568005 0
83.7655 -8.60871 0
84.2736 -6.33014 0
82.5151 -0.658751 0
82.7822 -8.75639 0
82.9084 -4.85742 0
84.5246 -3.83883 0
83.3325 -7.50175 0
82.2641 -7.84346 0
84.8276 4.40573 0
81.4466 0.534347 0
84.2591 2.94509 0
82.9925 -0.0787976 0
81.7176 -8.50245 0
83.5049 7.73878 0
81.199 0.3849 0
82.9745 6.57934 0
80.8867 -8.36367 0
82.59 -1.71522 0
80.2725 -6.10545 0
82.9274 8.81109 0
80.1805 2.02256 0
82.8331 8.73622 0
80.751 7.27485 0
80.4515 0.411003 0
81.3276 7.65552 0
80.8391 -6.35943 0
82.1451 -0.471599 0
80.065 -8.48953 0
80.092 -8.25573 0
81.6771 8.22069 0
79.846 7.82858 0
79.8398 0.0451281 0
80.8515 8.08723 0
79.1774 5.06462 0
79.8093 2.28308 0
79.1742 -8.4338 0
80.2434 -1.09105 0
79.5019 -8.3087 0
78.7276 8.27579 0
78.5916 -7.70473 0
79.4692 -1.0752 0
79.066 -3.39632 0
77.3766 -7.39717 0
80.4014 -4.10094 0
77.248 -7.15664 0
79.0453 -0.293583 0
76.3598 -6.83337 0
78.6707 2.8629 0
79.2755 0.462244 0
78.3557 6.95336 0
78.776 0.121604 0
78.1143 8.15281 0
77.8615 7.64709 0
78.51 0.18737 0
77.1591 6.69389 0
78.3541 0.134667 0
77.7518 -6.39915 0
79.0378 -0.576511 0
78.9503 6.02779 0
77.7356 0.730143 0
76.7331 6.28481 0
76.2582 -6.79218 0
79.1474 -0.22751 0
74.6756 -5.81146 0
77.7815 -0.443628 0
75.5078 -5.71958 0
78.0326 2.54707 0
77.8426 0.123482 0
78.4966 -5.20589 0
77.8423 -0.114457 0
74.8272 -5.38497 0
76.1779 5.67088 0
76.2863 -4.24924 0
77.8247 -0.239513 0
75.1704 -4.61368 0
77.366 3.13599 0
75.2569 1.98419 0
75.7199 4.90472 0
77.4 -0.980474 0
74.9847 -5.10959 0
77.7328 0.406373 0
75.5653 6.61534 0
77.2305 -2.36986 0
77.8465 -0.0844457 0
74.6821 -4.61251 0
75.3224 5.9078 0
77.686 0.715901 0
75.355 4.62065 0
75.0583 4.55833 0
77.7233 0.386506 0
74.2849 4.06247 0
73.8168 -4.13528 0
77.7762 -0.294624 0
73.5171 -4.13121 0
76.076 -1.96349 0
77.8127 -0.198949 0
72.9186 -2.81551 0
74.3095 5.05072 0
77.5913 0.61592 0
75.6733 3.23933 0
73.5512 -2.55634 0
77.6404 -0.314707 0
72.8917 -2.32912 0
73.2186 3.71464 0
77.6462 0.261574 0
73.6394 3.50126 0
73.9654 2.85426 0
77.8406 0.0328775 0
73.1042 3.04135 0
74.3123 -1.50563 0
77.5271 -0.536203 0
73.573 -1.32918 0
72.353 -0.844925 0
76.6936 -0.916032 0
72.4059 -0.716088 0
76.3566 0.956723 0
77.7193 0.0842654 0
75.297 2.41807 0
72.8891 2.44832 0
77.5134 0.0593527 0
72.47 1.54703 0
77.1394 -0.233565 0
77.812 -0.115671 0
72.4063 -0.235611 0
72.9536 -0.0927337 0
77.7451 -0.0659266 0
75.2884 0.30355 0
73.1207 0.522038 0
77.7776 -0.0620071 0
76.4177 -5.63456 0
77.8004 -0.433495 0
77.8154 0.137949 0
77.1576 6.85319 0
78.0435 -7.70845 0
81.1087 -0.943338 0
79.6722 0.997004 0
80.6075 8.58888 0
77.7208 0.283272 0
73.7565 4.83131 0
73.2943 -2.82609 0
77.7682 -0.208898 0
77.7317 -0.578136 0
76.9033 -3.65736 0
77.7391 0.80188 0
77.8661 0.195457 0
77.7263 0.000449925 0
72.9758 2.04545 0
78.7281 0.464707 0
77.9496 1.56978 0
78.2353 -1.37536 0
79.5103 -0.689362 0
84.6335 -1.2778 0
84.228 -8.45775 0
86.0593 8.09006 0
84.1934 0.470222 0
77.3473 1.65694 0
78.6539 7.96994 0
77.6578 -7.0515 0
78.6153 -2.31379 0
76.4643 -1.45792 0
73.9946 -0.215745 0
75.3676 5.80307 0
77.639 1.8793 0
77.4924 -1.78737 0
74.0427 -4.6159 0
90.3963 -5.45632 0
87.1297 -0.668719 0
86.73 0.797211 0
90.8219 4.56143 0
77.7333 -0.815433 0
77.8386 -0.0420879 0
77.8091 0.151667 0
78.4521 0.752474 0
82.0859 0.74415 0
81.7215 4.10469 0
80.3366 -1.99211 0
83.1949 -1.74962 0
80.6882 4.88814 0
83.4323 8.29929 0
82.2989 -8.66841 0
81.5616 -1.92213 0
85.3612 1.61949 0
86.4272 5.05167 0
85.0335 -2.80253 0
86.1119 -0.0455438 0
89.1553 -0.262634 0
91.6321 -1.37259 0
91.4546 0.56742 0
88.3801 0.0320333 0
89.3011 0.00245633 0
90.8441 0.53166 0
90.6243 -0.517386 0
89.4545 0.0469349 0
78.4789 -1.44293 0
78.0822 -0.569228 0
77.9655 1.23527 0
78.6337 0.94361 0
77.8518 1.21905 0
77.8241 0.23773 0
77.8395 -0.111063 0
77.8157 -1.1183 0
88.0981 0.970268 0
89.3195 1.92102 0
88.4083 -1.16654 0
88.5908 -0.175356 0
75.436 -0.95902 0
77.7612 -0.154107 0
77.2002 -0.439874 0
77.7581 -0.36991 0
77.7986 0.210786 0
77.6116 0.968312 0
89.9379 0.938191 0
89.1051 0.146647 0
89.2521 -0.00345496 0
89.671 -1.02002 0
80.7751 -0.0427438 0
80.0636 -2.82378 0
81.0313 1.80468 0
79.8765 0.449836 0
77.1393 4.02724 0
76.4429 7.28832 0
76.251 -6.23486 0
77.6693 -3.21305 0
78.2298 -2.10297 0
77.0303 -2.22847 0
77.1795 4.6259 0
77.6967 2.22135 0
89.4601 0.0608601 0
89.2056 0.150849 0
89.377 -0.0542359 0
90.3498 0.0591441 0
78.874 -5.41246 0
79.9093 -5.25419 0
79.5535 4.63532 0
79.9313 8.50672 0
78.3342 -3.97508 0
79.4868 -2.31681 0
79.3033 3.11908 0
78.6598 1.53247 0
89.1861 1.10846 0
88.6175 0.136151 0
88.8495 -0.0103548 0
88.774 -1.00115 0
76.9325 1.00459 0
77.8009 0.0341596 0
89.3193 -0.0493084 0
89.97 -0.321345 0
89.6775 0.22571 0
89.1503 0.0346213 0
78.343 -0.951611 0
77.9464 -1.32491 0
78.5544 1.73766 0
77.9195 0.738205 0
77.8435 -0.146673 0
77.8861 -0.693113 0
77.8179 0.316933 0
77.8231 0.138838 0
73.4378 1.70875 0
76.4775 1.51855 0
85.7705 -3.16836 0
89.0221 -6.40919 0
89.9574 5.87646 0
85.4864 2.28795 0
76.2379 -2.29888 0
74.0591 -2.88899 0
87.9501 0.153511 0
88.242 0.863555 0
87.2526 0.0754135 0
87.8934 0.83765 0
88.2567 -0.847544 0
88.0791 -0.138085 0
87.6499 -0.706122 0
87.5507 -0.0135278 0
89.0141 -0.204503 0
89.1342 -0.595255 0
88.9792 0.37338 0
88.7377 0.00703437 0
77.7919 0.183252 0
77.4584 0.533492 0
75.9849 0.455051 0
73.543 0.842758 0
77.6495 -0.243156 0
77.7867 -0.173445 0
77.0745 0.276409 0
76.9499 -0.739229 0
91.477 -2.82232 0
88.3489 -1.77878 0
89.3258 2.2617 0
91.6224 1.67682 0
77.8467 -0.0653994 0
77.8851 -0.370052 0
77.8312 0.0482992 0
77.9999 0.258632 0
88.4262 -0.199591 0
88.4528 -0.520116 0
88.4742 0.344395 0
88.0861 0.113079 0
87.07 0.171381 0
87.2634 0.538515 0
87.2836 -0.633456 0
87.16 -0.152621 0
78.0795 -0.896523 0
78.7527 -2.12399 0
78.2887 1.61087 0
78.0233 1.27213 0
78.4806 2.8768 0
77.1223 1.84326 0
77.6653 -1.91787 0
78.1553 -2.7848 0
89.8288 -0.564503 0
90.7729 0.254151 0
90.946 -0.245288 0
90.2534 0.610939 0
77.3595 -1.13848 0
77.4489 -1.35619 0
77.5324 1.07353 0
76.931 1.29434 0
87.0909 0.566629 0
86.7886 0.168922 0
86.8503 -0.10429 0
87.0267 -0.481661 0
83.9762 4.27327 0
85.8905 7.14703 0
85.3841 -8.40713 0
84.9648 -3.3593 0
74.5252 -3.41012 0
76.8926 -3.50721 0
83.6203 -3.06657 0
84.2129 -1.09853 0
82.6806 0.45416 0
85.8001 3.12702 0
74.0599 4.60543 0
76.1377 2.72504 0
87.7927 -0.0503175 0
87.9754 -0.537984 0
87.8521 0.355817 0
87.7584 0.0971328 0
87.5402 -0.374704 0
87.3411 -1.53352 0
87.8844 2.1149 0
86.9258 0.276488 0
82.1011 1.39519 0
80.5085 0.349961 0
81.5283 -0.331836 0
82.1173 -3.1121 0
89.6391 0.295554 0
89.9245 0.809657 0
90.0827 -0.885639 0
89.9767 -0.0248019 0
81.1805 -3.83256 0
82.2136 -1.8417 0
81.4841 2.71002 0
83.8618 5.99165 0
86.6726 0.345268 0
86.5457 0.0652487 0
86.7242 -0.10279 0
86.6617 -0.357923 0
87.2687 -0.18693 0
87.4348 -0.00865603 0
87.4076 0.101875 0
87.2474 0.442072 0
79.2409 0.493243 0
79.0253 1.30062 0
79.246 -1.14946 0
79.9836 -0.313278 0
80.5544 2.82335 0
79.139 1.95072 0
78.5335 -2.83335 0
77.8015 -2.85013 0
89.1946 -0.499025 0
88.9476 -0.287902 0
88.777 0.387005 0
89.6969 0.655092 0
79.0281 3.84343 0
79.5544 2.56211 0
78.7122 -0.820407 0
78.5853 -0.288404 0
78.4721 0.262039 0
79.0263 0.890993 0
76.096 -0.867715 0
77.158 -1.33888 0
90.8569 -3.72611 0
88.4112 -2.09965 0
87.9113 3.792 0
91.242 3.79699 0
77.6696 -0.867161 0
77.8505 -0.139236 0
77.7739 0.206062 0
77.7427 0.837459 0
77.9601 0.0887376 0
77.9501 0.619187 0
78.0671 -0.347504 0
78.1752 -0.0226615 0
74.8532 -0.265758 0
72.4239 0.149649 0
83.9696 3.22543 0
87.8553 3.00699 0
86.591 -2.53182 0
87.1949 -5.00902 0
77.1097 2.0557 0
76.7291 1.13538 0
77.8454 -0.0242102 0
77.4759 -0.0453419 0
79.424 6.81344 0
77.5811 4.04348 0
79.1915 -4.295 0
78.0839 -8.07154 0
77.0657 0.784892 0
77.6342 0.427707 0
89.0167 0.497299 0
89.3707 1.08722 0
89.0712 -0.997702 0
88.9919 -0.193549 0
86.865 -0.123706 0
87.0787 -0.0830086 0
87.0498 0.0717133 0
86.9506 0.418191 0
91.3521 0.483199 0
90.2232 1.42476 0
90.2504 -0.59324 0
91.49 -0.742054 0