# vtk DataFile Version 3.0
Unstructured Grid for Triangles
ASCII
DATASET UNSTRUCTURED_GRID
POINTS 29612 DOUBLE
-2.72397e-05 1.23686e-06 0
-2.95789e-05 9.5838e-07 0
-2.77865e-05 -3.1235e-07 0
0.0002024 5e-05 0
0.000203975 4.9875e-05 0
0.000205 5e-05 0
0.000203975 -4.9875e-05 0
0.0002024 -5e-05 0
0.000205 -5e-05 0
0.00020295 4.975e-05 0
0.00020295 -4.975e-05 0
0.000201925 4.9625e-05 0
0.000201925 -4.9625e-05 0
-5.29747e-05 -4.79887e-05 0
-5.5e-05 -5e-05 0
-5.24e-05 -5e-05 0
-5.05983e-05 -4.84325e-05 0
-4.98e-05 -5e-05 0
-4.72e-05 -5e-05 0
-4.83864e-05 -4.87761e-05 0
-4.46e-05 -5e-05 0
-4.59e-05 -4.84239e-05 0
-4.29453e-05 -4.24878e-05 0
-4.47486e-05 -4.20717e-05 0
-4.41829e-05 -4.36609e-05 0
-5.12578e-05 -4.62101e-05 0
-4.93077e-05 -4.53594e-05 0
-5.0706e-05 -4.39006e-05 0
-4.19243e-05 -4.77545e-05 0
-4.40307e-05 -4.71837e-05 0
-4.3691e-05 -4.86724e-05 0
-5.16129e-05 -4.20948e-05 0
-4.95355e-05 -4.15432e-05 0
-5.11646e-05 -4.0128e-05 0
-3.94697e-05 -4.81197e-05 0
-4.06302e-05 -4.55143e-05 0
-5.37257e-05 -3.88197e-05 0
-5.31099e-05 -4.07297e-05 0
-5.23982e-05 -3.88328e-05 0
-3.70063e-05 -4.72956e-05 0
-3.68e-05 -5e-05 0
-3.5308e-05 -4.85302e-05 0
-5.072e-05 -3.7867e-05 0
-4.85506e-05 -3.83975e-05 0
-4.90949e-05 -3.59622e-05 0
-3.37127e-05 -4.84331e-05 0
-3.16e-05 -5e-05 0
-3.26495e-05 -4.7415e-05 0
-5.5e-05 -3.5e-05 0
-5.31201e-05 -3.70361e-05 0
-5.28367e-05 -3.46817e-05 0
-3.63898e-05 -4.48809e-05 0
-3.83315e-05 -4.60336e-05 0
-3.26269e-06 -4.15503e-05 0
-5.99662e-06 -4.09556e-05 0
-5.46944e-06 -4.29488e-05 0
-5.29747e-05 4.79887e-05 0
-5.5e-05 5e-05 0
-5.5e-05 4.75e-05 0
-5.5e-05 4.5e-05 0
-5.34834e-05 4.29171e-05 0
-5.26943e-05 4.42611e-05 0
-5.34026e-05 4.60176e-05 0
-5.31099e-05 4.07297e-05 0
-5.11672e-05 4.01178e-05 0
-5.16129e-05 4.20948e-05 0
-5.24e-05 5e-05 0
-5.05983e-05 4.84325e-05 0
-5.31201e-05 3.70361e-05 0
-5.072e-05 3.7867e-05 0
-5.23982e-05 3.88328e-05 0
-4.8341e-05 4.69132e-05 0
-4.83679e-05 4.87539e-05 0
-5.28367e-05 3.46817e-05 0
-5.5e-05 3.25e-05 0
-5.25657e-05 3.28474e-05 0
-4.98e-05 5e-05 0
-5.30382e-05 3.125e-05 0
-4.19243e-05 4.77545e-05 0
-4.40015e-05 4.7335e-05 0
-4.25917e-05 4.63678e-05 0
-4.35138e-05 2.62661e-05 0
-4.14982e-05 2.74462e-05 0
-4.35654e-05 2.85217e-05 0
-4.59e-05 4.84239e-05 0
-4.36852e-05 4.87027e-05 0
-4.46e-05 5e-05 0
-5.33308e-05 2.92503e-05 0
-5.5e-05 2.75e-05 0
-5.23377e-05 2.76953e-05 0
-4.25282e-05 4.46352e-05 0
-4.09368e-05 4.35728e-05 0
-4.06302e-05 4.55143e-05 0
0.0002009 4.95e-05 0
0.0001998 5e-05 0
0.000199875 4.9375e-05 0
0.00019885 4.925e-05 0
0.0001972 5e-05 0
0.000197825 4.9125e-05 0
0.0001968 4.9e-05 0
0.000195775 4.8875e-05 0
0.0001946 5e-05 0
0.00019475 4.875e-05 0
0.000193725 4.8625e-05 0
0.000192 5e-05 0
0.0001927 4.85e-05 0
0.000191675 4.8375e-05 0
0.00019065 4.825e-05 0
0.0001894 5e-05 0
0.000189625 4.8125e-05 0
0.0001886 4.8e-05 0
0.0001868 5e-05 0
0.000187575 4.7875e-05 0
0.00018655 4.775e-05 0
0.000185515 4.8575e-05 0
0.0001842 5e-05 0
0.0001845 4.75e-05 0
0.000185525 4.7625e-05 0
0.000182564 4.829e-05 0
0.0001816 5e-05 0
0.00018245 4.725e-05 0
0.000183475 4.7375e-05 0
0.000181425 4.7125e-05 0
0.000180295 4.82657e-05 0
0.000179 5e-05 0
0.000179375 4.6875e-05 0
0.0001804 4.7e-05 0
0.000178168 4.80619e-05 0
0.0001764 5e-05 0
0.000177325 4.6625e-05 0
0.00017835 4.675e-05 0
0.000176428 4.76631e-05 0
0.0001763 4.65e-05 0
0.0001738 5e-05 0
0.0001751 4.84164e-05 0
0.000175275 4.6375e-05 0
0.000174025 4.75632e-05 0
0.0001712 5e-05 0
0.000172615 4.78449e-05 0
0.0001722 4.6e-05 0
0.000173225 4.6125e-05 0
0.00017015 4.575e-05 0
0.000171243 4.7381e-05 0
0.000169554 4.79999e-05 0
0.0001686 5e-05 0
0.000167507 4.79751e-05 0
0.000168498 4.64861e-05 0
0.000166 5e-05 0
0.00016558 4.71459e-05 0
0.000167135 4.62887e-05 0
0.0001681 4.55e-05 0
0.00016605 4.525e-05 0
0.000167075 4.5375e-05 0
0.000164059 4.61599e-05 0
0.00016394 4.79552e-05 0
0.000162881 4.6615e-05 0
0.000162975 4.4875e-05 0
0.000165025 4.5125e-05 0
0.000164 4.5e-05 0
0.000161754 4.58641e-05 0
0.000161722 4.78101e-05 0
0.000159956 4.58294e-05 0
0.000160925 4.4625e-05 0
0.00016195 4.475e-05 0
0.000157667 4.60322e-05 0
0.000158875 4.4375e-05 0
0.000159194 4.80155e-05 0
0.0001599 4.45e-05 0
0.00015785 4.425e-05 0
0.000155808 4.56757e-05 0
0.000155647 4.76701e-05 0
0.000154059 4.66642e-05 0
0.000153756 4.50083e-05 0
0.000154839 4.50446e-05 0
0.000156825 4.4125e-05 0
0.000151954 4.80508e-05 0
0.000154052 4.8477e-05 0
0.000153 5e-05 0
0.000154775 4.3875e-05 0
0.000152142 4.56625e-05 0
0.000152821 4.45753e-05 0
0.00015375 4.375e-05 0
0.0001504 5e-05 0
0.000149644 4.85168e-05 0
0.000151787 4.43178e-05 0
0.000152725 4.3625e-05 0
0.000150675 4.3375e-05 0
0.0001517 4.35e-05 0
0.000148119 4.50887e-05 0
0.000148072 4.75757e-05 0
0.000146584 4.63516e-05 0
0.000150008 4.6396e-05 0
0.000149351 4.4543e-05 0
0.00015061 4.46252e-05 0
0.0001476 4.3e-05 0
0.000148625 4.3125e-05 0
0.000146492 4.82975e-05 0
0.000144888 4.73562e-05 0
0.000146676 4.44259e-05 0
0.000145255 4.53656e-05 0
0.000145652 4.38669e-05 0
0.000141401 4.79821e-05 0
0.0001426 5e-05 0
0.00014 5e-05 0
0.000144374 4.38862e-05 0
0.00014555 4.275e-05 0
0.0001435 4.25e-05 0
0.000144525 4.2625e-05 0
0.000142746 4.38121e-05 0
0.000141288 4.43191e-05 0
0.000141707 4.32778e-05 0
0.00013921 4.38992e-05 0
0.000140355 4.5932e-05 0
0.000138302 4.5922e-05 0
0.000142912 4.58869e-05 0
0.000140592 4.30037e-05 0
0.00014145 4.225e-05 0
0.000136458 4.5869e-05 0
0.000137106 4.4063e-05 0
0.0001394 4.2e-05 0
0.000138259 4.28915e-05 0
0.000137484 4.77094e-05 0
0.000139166 4.78902e-05 0
0.00013586 4.78984e-05 0
0.000133449 4.78649e-05 0
0.000134717 4.61848e-05 0
0.000137256 4.25134e-05 0
0.000135323 4.24541e-05 0
0.000136325 4.1625e-05 0
0.000136122 4.2876e-05 0
0.000131206 4.47284e-05 0
0.000133168 4.56738e-05 0
0.000131773 4.65243e-05 0
0.000134756 4.40343e-05 0
0.000132747 4.36463e-05 0
0.000133483 4.26786e-05 0
0.000131081 4.1867e-05 0
0.000132382 4.22815e-05 0
0.000131507 4.3122e-05 0
0.000131059 4.80123e-05 0
0.00013325 4.125e-05 0
0.00012915 4.075e-05 0
0.00012982 4.18199e-05 0
0.000128915 4.26216e-05 0
0.000126366 4.47574e-05 0
0.000127331 4.30908e-05 0
0.000128781 4.44872e-05 0
0.000125336 4.28376e-05 0
0.000130218 4.31077e-05 0
0.000127894 4.16344e-05 0
0.000124774 4.69608e-05 0
0.000127668 4.64148e-05 0
0.000126591 4.8331e-05 0
0.000126722 4.18415e-05 0
0.000125768 4.11931e-05 0
0.000124326 4.13546e-05 0
0.00012505 4.025e-05 0
0.000122408 4.50118e-05 0
0.000120276 4.47432e-05 0
0.00012139 4.32235e-05 0
0.000124336 4.44132e-05 0
0.000123056 4.27595e-05 0
0.000122977 4.09049e-05 0
0.00012185 4.69217e-05 0
0.000122676 4.85947e-05 0
0.000120525 4.86094e-05 0
0.000121479 4.13153e-05 0
0.000119547 4.24221e-05 0
0.000120249 4.07448e-05 0
0.000119925 3.9625e-05 0
0.000119346 4.06114e-05 0
0.000117479 4.47279e-05 0
0.000114726 4.45259e-05 0
0.00011571 4.27814e-05 0
0.000119443 4.66611e-05 0
0.000117447 4.21596e-05 0
0.000118421 4.0752e-05 0
0.000117409 4.04437e-05 0
0.000116775 4.70073e-05 0
0.0001179 4.855e-05 0
0.000115473 4.84802e-05 0
0.00011685 3.925e-05 0
0.000117875 3.9375e-05 0
0.000115454 4.00551e-05 0
0.0001148 3.9e-05 0
0.000115825 3.9125e-05 0
0.000111704 4.23398e-05 0
0.000113786 4.26731e-05 0
0.000112589 4.43871e-05 0
0.000113234 4.06671e-05 0
0.000114754 4.13371e-05 0
0.0001106 4.42326e-05 0
0.000109703 4.24261e-05 0
0.00011275 3.875e-05 0
0.000113775 3.8875e-05 0
0.000110211 4.80875e-05 0
0.000108244 4.71951e-05 0
0.000109312 4.58413e-05 0
0.000111755 3.99116e-05 0
0.00010944 3.92972e-05 0
0.000110415 4.05876e-05 0
0.000108839 4.07536e-05 0
0.000106472 4.76905e-05 0
0.000107274 4.57868e-05 0
0.000108011 3.92415e-05 0
0.000106885 4.04365e-05 0
0.000106625 3.88708e-05 0
0.000105286 4.19254e-05 0
0.000105055 3.95469e-05 0
0.000104215 4.39764e-05 0
0.000106346 4.40629e-05 0
0.000100945 4.51249e-05 0
0.000102825 4.5614e-05 0
0.000101189 4.68452e-05 0
0.000107625 3.8125e-05 0
0.000105575 3.7875e-05 0
0.0001066 3.8e-05 0
0.000103352 4.76905e-05 0
0.000101803 4.8465e-05 0
0.000103685 3.89398e-05 0
0.00010245 3.8825e-05 0
0.000103525 3.7625e-05 0
0.000101092 3.99779e-05 0
0.000101267 3.82619e-05 0
0.000101382 4.2025e-05 0
0.000103187 4.05286e-05 0
0.000103359 4.24605e-05 0
9.87383e-05 4.5447e-05 0
9.99411e-05 4.35161e-05 0
9.744e-05 4.33145e-05 0
0.00010045 3.725e-05 0
0.000101475 3.7375e-05 0
9.70845e-05 4.65215e-05 0
9.52614e-05 4.67664e-05 0
9.61768e-05 4.49944e-05 0
9.9729e-05 3.87704e-05 0
9.78901e-05 3.9598e-05 0
9.85823e-05 3.81492e-05 0
9.62289e-05 3.93709e-05 0
9.74259e-05 3.81279e-05 0
9.7375e-05 3.6875e-05 0
9.63045e-05 3.76631e-05 0
9.58e-05 5e-05 0
9.32e-05 5e-05 0
9.47542e-05 4.8457e-05 0
9.49675e-05 3.85246e-05 0
9.36214e-05 3.89472e-05 0
9.40006e-05 3.74906e-05 0
9.66411e-05 4.12573e-05 0
9.44241e-05 4.07079e-05 0
9.03569e-05 4.24993e-05 0
9.21701e-05 4.02409e-05 0
9.27439e-05 4.27744e-05 0
8.89795e-05 4.09067e-05 0
9.03071e-05 4.0248e-05 0
9.25447e-05 3.77721e-05 0
9.3275e-05 3.6375e-05 0
9.07708e-05 3.87127e-05 0
9.11303e-05 3.70839e-05 0
9.11933e-05 4.55145e-05 0
9.30678e-05 4.73279e-05 0
9.11886e-05 4.82603e-05 0
8.87724e-05 3.88076e-05 0
8.99595e-05 3.75116e-05 0
9.02e-05 3.6e-05 0
8.89241e-05 3.6954e-05 0
8.36977e-05 4.59472e-05 0
8.36223e-05 4.83578e-05 0
8.20467e-05 4.74142e-05 0
8.71227e-05 4.03557e-05 0
8.61e-05 3.55e-05 0
8.68368e-05 3.65714e-05 0
8.5484e-05 3.6588e-05 0
8.47735e-05 4.02845e-05 0
8.23121e-05 4.21599e-05 0
8.26582e-05 3.98147e-05 0
8.46943e-05 4.2454e-05 0
8.38832e-05 3.78613e-05 0
8.35569e-05 3.63808e-05 0
8.44098e-05 3.6291e-05 0
8.5075e-05 3.5375e-05 0
8.51465e-05 4.77163e-05 0
8.3025e-05 3.5125e-05 0
8.22824e-05 3.68659e-05 0
8.1446e-05 3.57362e-05 0
8.05884e-05 3.71794e-05 0
7.53471e-05 4.77524e-05 0
7.38313e-05 4.73927e-05 0
7.39102e-05 4.61526e-05 0
7.9826e-05 3.58588e-05 0
7.88607e-05 3.76287e-05 0
7.81733e-05 3.57987e-05 0
8.16783e-05 3.84471e-05 0
8.07975e-05 4.04095e-05 0
7.52138e-05 4.04775e-05 0
7.67682e-05 4.17043e-05 0
7.49617e-05 4.21803e-05 0
7.52903e-05 3.84008e-05 0
7.38293e-05 3.93136e-05 0
[...]
CELL_DATA 58684
VECTORS velocity DOUBLE
74.2272 0.33728 0
87.2308 0.000140793 0
87.2055 1.78668e-05 0
87.2346 0.000396396 0
87.2078 -0.000945675 0
87.2397 -0.00276136 0
87.2138 0.00332228 0
77.8781 -0.0016521 0
77.8923 -0.0243769 0
77.9989 -0.00279021 0
78.1121 -0.00528616 0
78.1747 -0.409421 0
77.926 -0.109732 0
78.2551 -0.135037 0
77.9051 -0.185194 0
78.4535 -0.170486 0
77.8788 -0.11262 0
78.8141 -0.157535 0
77.9551 -0.317977 0
79.3239 -0.111705 0
77.8915 -0.115552 0
78.7832 -0.369515 0
85.3732 -2.16497 0
77.8614 0.0122505 0
77.8644 0.0513515 0
77.8609 0.0249989 0
77.9017 0.142124 0
77.8919 0.0232887 0
77.8966 0.188904 0
77.9961 0.0492154 0
77.8885 0.145456 0
77.9515 0.0331557 0
77.8512 0.144308 0
78.326 0.16288 0
78.0367 1.13358 0
78.1802 0.0686932 0
77.9002 0.178982 0
78.404 0.35459 0
87.2419 -0.00204323 0
87.2458 6.94401e-05 0
87.2535 -0.00390023 0
87.2535 -0.0042774 0
87.2584 0.000435581 0
87.2661 -0.00326368 0
87.2674 -0.00688897 0
87.268 -0.00491618 0
87.2726 -8.73534e-05 0
87.2787 -0.0063743 0
87.2781 -0.00629114 0
87.2816 0.00015401 0
87.2898 -0.00670577 0
87.2897 -0.00899593 0
87.2903 -0.00620782 0
87.2938 -0.000512926 0
87.2991 -0.00836574 0
87.2984 -0.00752721 0
87.3012 -0.000434217 0
87.3096 -0.010556 0
87.3091 -0.0114819 0
87.3101 -0.00672269 0
87.315 -0.0002884 0
87.3187 -0.0150175 0
87.3211 -0.00977368 0
87.3287 -0.00139087 0
87.3312 -0.0166876 0
87.3308 -0.0158527 0
87.3352 -0.0112996 0
87.339 -0.00101626 0
87.3405 -0.0180248 0
87.3452 -0.0121265 0
87.3485 -0.000816258 0
87.352 -0.0202382 0
87.3562 -0.0154453 0
87.3622 -0.0234402 0
87.3629 -0.000775683 0
87.3676 -0.0176136 0
87.3703 -0.0109783 0
87.3758 -0.00167721 0
87.3802 -0.0253948 0
87.393 -0.0195145 0
87.3825 -0.0208305 0
87.3924 -0.00212054 0
87.3979 -0.0133674 0
87.3948 -0.0253776 0
87.4142 -0.0169042 0
87.4103 -0.0224087 0
87.4121 -0.0296837 0
87.4202 -0.0370537 0
87.4319 -0.0234227 0
87.4448 -0.0328452 0
87.427 -0.0287957 0
87.4396 -0.0414821 0
87.4489 -0.032186 0
87.4486 -0.0310381 0
87.4561 -0.0434961 0
87.4783 -0.0390508 0
87.4614 -0.0343897 0
87.4724 -0.0465341 0
87.4869 -0.0524111 0
87.4858 -0.0384351 0
87.5062 -0.0485879 0
87.4911 -0.0430658 0
87.5055 -0.0157085 0
87.5128 -0.0532449 0
87.5271 -0.0496445 0
87.5217 -0.0555646 0
87.5226 -0.0138354 0
87.5336 -0.0588364 0
87.5471 -0.0662775 0
87.5534 -0.0373445 0
87.5518 -0.0396013 0
87.5413 -0.0539969 0
87.5704 -0.0707097 0
87.5631 -0.0293758 0
87.5937 -0.0637908 0
87.5786 -0.0413156 0
87.6009 -0.00302569 0
87.602 -0.0721564 0
87.6142 -0.0844739 0
87.6394 -0.0734829 0
87.6504 -0.056704 0
87.6112 -0.0440736 0
87.6473 -0.0842911 0
87.6705 -0.0573145 0
87.6715 -0.0887665 0
87.6441 -0.0332007 0
87.6809 -0.0799562 0
87.6842 -0.0303568 0
87.6932 -0.0926316 0
87.7168 -0.106701 0
87.7367 -0.0638808 0
87.7355 -0.0896696 0
87.7052 -0.0419626 0
87.7699 -0.115026 0
87.7143 -0.0333119 0
87.7532 -0.114584 0
87.8076 -0.127703 0
87.8139 -0.090091 0
87.8272 -0.111027 0
87.7953 -0.106788 0
87.819 -0.117016 0
87.7787 -0.0506734 0
87.8562 -0.134288 0
87.8795 -0.147736 0
87.8985 -0.0971987 0
87.8287 -0.0732008 0
87.8707 -0.126807 0
87.89 -0.149291 0
87.8452 -0.0301258 0
87.9489 -0.159083 0
87.962 -0.177135 0
87.9869 -0.109127 0
87.9095 -0.0959111 0
87.9696 -0.14979 0
87.9893 -0.176112 0
87.9239 -0.0319781 0
88.0071 -0.203687 0
88.0501 -0.217968 0
88.0529 -0.153595 0
88.0543 -0.177825 0
88.0933 -0.16182 0
88.084 -0.225477 0
88.0676 -0.0598846 0
88.0917 -0.21233 0
88.1539 -0.215933 0
88.1163 -0.0695854 0
88.212 -0.254986 0
88.2326 -0.235347 0
88.2101 -0.149808 0
88.2583 -0.114521 0
88.2177 -0.261383 0
88.2518 -0.287764 0
88.2308 -0.0588892 0
88.3116 -0.28994 0
88.354 -0.29726 0
88.2779 -0.213591 0
88.3284 -0.133906 0
88.361 -0.17696 0
88.385 -0.339969 0
88.3985 -0.114888 0
88.4384 -0.316338 0
88.4646 -0.310199 0
88.4897 -0.362255 0
88.424 -0.0051585 0
88.577 -0.360301 0
88.4683 -0.278938 0
88.5713 -0.251437 0
88.6341 -0.293299 0
88.6228 -0.398727 0
88.6703 -0.402371 0
88.5302 -0.090806 0
88.7009 -0.389736 0
88.7291 -0.449204 0
88.7393 -0.432316 0
88.7982 -0.0993867 0
88.718 -0.342741 0
88.8804 -0.496061 0
88.9111 -0.374772 0
88.837 -0.315641 0
88.9299 -0.522773 0
88.9197 -0.517597 0
88.7907 -0.0895267 0
89.0094 -0.572901 0
89.0419 -0.538222 0
89.1779 -0.105296 0
89.1288 -0.589451 0
88.9858 -0.413933 0
89.2063 -0.376229 0
89.2675 -0.484092 0
89.1742 -0.534494 0
89.203 -0.638518 0
89.2288 -0.229327 0
89.3549 -0.614976 0
89.3198 -0.708552 0
89.4899 -0.718444 0
89.4188 -0.0117667 0
89.4375 -0.591425 0
89.5006 -0.7426 0
89.3277 -0.183345 0
89.5589 -0.780794 0
89.6287 -0.450352 0
89.6027 -0.816336 0
89.7656 -0.251994 0
89.7493 -0.703211 0
89.7232 -0.82743 0
89.6367 -0.127482 0
89.8553 -0.853907 0
90.0167 -0.831557 0
89.8664 -0.708201 0
89.9 -0.427646 0
90.0516 -0.954842 0
90.0329 -0.374825 0
90.1691 -0.0640776 0
89.9899 -0.751855 0
90.1571 -0.944805 0
90.2419 -1.0148 0
90.236 -0.318003 0
90.3674 -0.875664 0
90.5159 -0.959311 0
90.2958 -0.106874 0
90.6513 -0.932802 0
90.577 -1.04181 0
90.4322 -0.77095 0
90.4708 -0.371242 0
90.5803 -0.434049 0
90.719 -1.04668 0
90.6081 -0.00694866 0
90.8213 -1.11652 0
90.9477 -1.05921 0
90.907 -1.11524 0
90.8389 -0.241088 0
90.9989 -0.907984 0
91.2381 -0.920756 0
90.7927 -0.00506665 0
91.3299 -1.09353 0
91.4926 -0.927929 0
91.1489 -0.672015 0
90.961 -0.27606 0
91.4932 -1.04943 0
91.1217 -0.343002 0
90.9001 -0.0153391 0
91.4121 -0.703615 0
91.7425 -0.953041 0
91.9011 -0.889138 0
91.0751 -0.0706367 0
91.8398 -0.602587 0
91.9837 -0.794231 0
90.9207 0.0333045 0
92.1178 -0.78178 0
92.2973 -0.65217 0
91.9149 -0.222627 0
90.6549 0.009559 0
92.446 -0.428832 0
91.5719 0.204453 0
91.7994 0.311455 0
92.3161 -0.277903 0
92.0921 -0.0181917 0
92.7617 -0.0417439 0
90.7694 0.374619 0
92.7485 -0.144149 0
92.291 0.42551 0
92.9357 0.496589 0
90.6908 0.108802 0
92.8812 1.19756 0
92.6495 1.42766 0
89.2823 0.198375 0
93.1081 0.888933 0
93.0005 1.36719 0
90.6465 1.47808 0
90.4091 0.705491 0
91.9454 1.11659 0
92.8933 1.89993 0
89.5349 0.330807 0
92.3935 2.78842 0
93.0699 2.13727 0
93.082 2.36419 0
88.7548 1.41384 0
91.4126 2.9187 0
92.4425 3.17506 0
88.7408 0.231979 0
92.2563 3.67585 0
91.9045 3.55848 0
90.9282 5.18238 0
86.429 0.396885 0
92.0676 4.87945 0
90.0771 3.52131 0
88.2048 1.56416 0
87.8085 2.98297 0
91.8312 5.38505 0
90.6916 5.83668 0
86.8697 0.608231 0
90.7625 6.66105 0
87.2159 0.00204414 0
87.2194 -8.51791e-05 0
87.226 0.00317528 0
87.2257 0.00415861 0
87.2302 -0.000456712 0
87.2376 0.00313191 0
87.2385 0.00644807 0
87.2394 0.00444127 0
87.2435 9.43159e-05 0
87.249 0.00602257 0
87.2485 0.00534156 0
87.2515 -0.000189459 0
87.2592 0.00650338 0
87.259 0.0086718 0
87.2594 0.00599181 0
87.2628 0.000482988 0
87.268 0.00840705 0
87.2673 0.00764459 0
87.27 0.00043165 0
87.2784 0.0101506 0
87.2779 0.011233 0
87.2864 0.0149148 0
87.2789 0.00654102 0
87.2899 0.00845348 0
87.2981 0.0139993 0
87.2898 0.0098754 0
87.2999 0.0156078 0
87.3043 0.0112485 0
87.3103 0.0178074 0
87.3019 0.00978804 0
87.3142 0.0124248 0
87.3217 0.0201715 0
87.3137 0.0100126 0
87.3319 0.0236271 0
87.3324 0.0236121 0
87.3358 0.0167086 0
87.3262 0.0117041 0
87.3372 0.0179238 0
87.3479 0.0172003 0
87.3399 0.0112234 0
87.3586 0.0306291 0
87.3542 0.012582 0
87.3636 0.0198328 0
87.3539 0.0154549 0
87.3656 0.0257222 0
87.3834 0.0299152 0
87.385 0.0172049 0
87.3781 0.0274806 0
87.3951 0.0314125 0
87.3957 0.0364122 0
87.409 0.0182532 0
87.4034 0.0235525 0
87.4163 0.0329925 0
87.4282 0.0460818 0
87.4272 0.0223478 0
87.4355 0.0355263 0
87.4438 0.0484718 0
87.4461 0.027408 0
87.4328 0.0344367 0
87.4596 0.0530019 0
87.4593 0.0520915 0
87.4608 0.0327831 0
87.4692 0.0235052 0
87.4787 0.0483998 0
87.4351 0.013894 0
87.4945 0.0557964 0
87.5203 0.0674903 0
87.5042 0.0566756 0
87.4896 0.0331667 0
87.5282 0.068224 0
87.5336 0.0598558 0
87.5386 0.0296032 0
87.5158 0.0549575 0
87.549 0.0632252 0
87.5624 0.0721768 0
87.5177 0.0169201 0
87.55 0.0521191 0
87.5902 0.0844075 0
87.556 0.0424124 0
87.5983 0.0735317 0
87.622 0.0883487 0
87.5968 0.0647031 0
87.6078 0.0267191 0
87.6275 0.078058 0
87.6439 0.0896575 0
87.6175 0.0218592 0
87.6635 0.0988119 0
87.6289 0.0726918 0
87.6774 0.0815389 0
87.642 0.0570576 0
87.6902 0.106739 0
87.7379 0.127988 0
87.6905 0.0329219 0
87.696 0.0874352 0
87.7605 0.135256 0
87.7336 0.0977873 0
87.6823 0.0410065 0
87.7722 0.127725 0
87.7885 0.133108 0
87.7406 0.0330995 0
87.7797 0.0584772 0
87.8116 0.11692 0
87.8313 0.154549 0
87.7621 0.0816102 0
87.8555 0.148745 0
87.8731 0.159909 0
87.8598 0.0545931 0
87.847 0.0978422 0
87.9124 0.177759 0
87.9034 0.150854 0
87.8089 0.048703 0
87.9254 0.169715 0
87.9667 0.18221 0
87.9319 0.0718033 0
87.9365 0.155496 0
88.019 0.215375 0
88.0005 0.165513 0
87.8839 0.0531321 0
88.038 0.202103 0
88.0953 0.243651 0
87.9792 0.0699004 0
88.0774 0.194225 0
88.0484 0.0908445 0
88.1124 0.202269 0
88.0311 0.115126 0
88.1468 0.257533 0
88.1937 0.256995 0
88.0931 0.0699733 0
88.1825 0.250601 0
88.2514 0.288689 0
88.1905 0.0743556 0
88.1532 0.211181 0
88.2348 0.245487 0
88.2917 0.291357 0
88.1697 0.0443512 0
88.2971 0.265441 0
88.3904 0.343281 0
88.3641 0.287136 0
88.2934 0.0874396 0
88.4284 0.298564 0
88.2537 0.11234 0
88.297 0.253974 0
88.4245 0.331635 0
88.5224 0.374643 0
88.529 0.383124 0
88.2669 0.00780804 0
88.6181 0.435234 0
88.6267 0.424049 0
88.6399 0.372728 0
88.571 0.184215 0
88.6653 0.199441 0
88.6595 0.417645 0
88.4392 0.114187 0
88.7696 0.470391 0
88.7578 0.460902 0
88.7597 0.414133 0
88.6476 0.119833 0
88.8335 0.46037 0
88.9522 0.572267 0
88.8005 0.2148 0
88.757 0.229027 0
88.9046 0.462313 0
89.0625 0.594263 0
88.6825 0.142539 0
89.0992 0.627762 0
89.1322 0.611375 0
88.9382 0.120273 0
89.2609 0.697311 0
89.2909 0.669778 0
89.3453 0.576435 0
89.1299 0.255258 0
89.1064 0.289042 0
89.2706 0.646475 0
89.0156 0.188163 0
89.4278 0.769221 0
89.4753 0.726675 0
89.4674 0.669058 0
89.2067 0.10228 0
89.6343 0.788596 0
89.6487 0.805272 0
89.4902 0.45358 0
89.7303 0.63418 0
89.5022 0.368801 0
89.698 0.772685 0
89.3956 0.234469 0
89.8477 0.898998 0
89.8693 0.869777 0
89.4265 0.185424 0
89.9304 0.800237 0
90.1055 0.922326 0
90.0219 0.900425 0
89.8943 0.210403 0
90.3042 0.964794 0
90.3464 1.02881 0
89.8636 0.625134 0
90.2326 0.763335 0
89.9133 0.381129 0
90.5307 1.08245 0
90.0672 0.117563 0
90.5901 1.0522 0
90.5813 0.997463 0
89.8969 0.0938237 0
90.5102 0.902272 0
90.8905 1.06662 0
90.9788 1.07532 0
90.4429 0.269451 0
91.0477 1.04913 0
91.0953 1.11798 0
90.4366 0.682371 0
91.0939 0.737545 0
90.5896 0.261929 0
91.2559 1.11582 0
90.6083 0.0973402 0
91.3958 1.04114 0
91.4813 1.02543 0
90.448 0.068701 0
91.3002 0.847459 0
91.7601 0.954676 0
91.9177 0.892023 0
90.8551 0.170055 0
91.7558 0.835017 0
92.0507 0.842277 0
91.3895 0.721807 0
91.8335 0.413812 0
90.9267 0.10591 0
91.8226 0.7537 0
90.9295 0.0383388 0
92.2899 0.736552 0
92.3734 0.591121 0
90.8363 0.0373749 0
92.0748 0.283427 0
92.517 0.309818 0
92.7012 0.175787 0
90.8994 -0.100049 0
92.7879 -0.0261964 0
92.8309 -0.16159 0
91.0392 -0.271714 0
92.8451 -0.192422 0
92.042 -0.64134 0
91.3302 -0.0971465 0
91.1426 -0.00287141 0
92.9762 -0.482423 0
92.7332 -0.876705 0
93.16 -1.05274 0
90.7887 -0.00586023 0
92.4373 -1.32622 0
93.1552 -1.78578 0
90.7363 -0.124622 0
92.2728 -1.29368 0
93.1276 -2.32427 0
91.7074 -1.76003 0
90.7018 -0.659455 0
92.9336 -2.67305 0
92.7933 -2.96639 0
91.6762 -1.11331 0
91.1003 -3.13588 0
89.0631 -2.59097 0
92.432 -3.00517 0
89.4927 -0.405228 0
92.4142 -3.95458 0
89.8332 7.26301 0
90.5675 6.48941 0
85.1487 1.92212 0
89.7272 7.22083 0
87.484 6.61312 0
89.0658 7.85417 0
85.7464 0.7547 0
88.0835 8.05945 0
86.9069 7.93529 0
84.4846 0.961203 0
86.9815 8.46053 0
92.3225 -4.37387 0
89.7405 -0.252174 0
92.0549 -4.71908 0
90.8122 -5.12109 0
90.2596 -4.40873 0
88.8353 -0.267679 0
91.0536 -5.70906 0
85.6724 7.73257 0
90.3987 -6.98685 0
88.5784 -1.3966 0
90.0746 -6.75382 0
89.2074 -7.71942 0
83.3195 2.36259 0
88.7695 -7.57687 0
89.9918 -4.22268 0
89.2622 -6.86336 0
87.3954 -5.08255 0
86.4571 -0.835641 0
88.3213 -6.97314 0
87.5252 -7.38434 0
85.0474 8.15987 0
87.5973 -7.39534 0
87.2974 -0.453186 0
86.5629 -7.75087 0
86.0493 -8.45599 0
85.7698 -0.562148 0
84.9553 -8.60276 0
85.4625 -6.31245 0
83.5808 -0.651469 0
83.9404 -8.75606 0
84.0021 -4.85649 0
85.7289 -3.82159 0
84.4826 -7.49539 0
83.3691 -7.84852 0
86.0455 4.38272 0
82.4024 0.528354 0
85.4498 2.93154 0
84.0937 -0.0735182 0
82.824 -8.5142 0
84.669 7.72921 0
82.1265 0.383987 0
84.0924 6.5772 0
81.9556 -8.37959 0
83.6605 -1.71329 0
81.2363 -6.11894 0
84.0913 8.81087 0
81.0015 2.02354 0
83.9904 8.7367 0
81.7555 7.28997 0
81.2907 0.412563 0
82.3944 7.66299 0
81.8479 -6.3642 0
83.166 -0.473381 0
81.0992 -8.50825 0
81.1165 -8.27616 0
82.7697 8.22975 0
80.8376 7.84857 0
80.5909 0.040687 0
81.9036 8.1011 0
80.0242 5.07804 0
80.5947 2.28633 0
80.1743 -8.45801 0
81.0699 -1.09778 0
80.5082 -8.33294 0
79.7117 8.30113 0
79.545 -7.72828 0
80.1892 -1.07738 0
79.8203 -3.39685 0
78.2808 -7.4254 0
81.3035 -4.10449 0
78.1388 -7.18133 0
79.6779 -0.289664 0
77.2219 -6.86192 0
79.353 2.86329 0
79.9551 0.460893 0
79.2774 6.97048 0
79.3313 0.116202 0
79.0777 8.17857 0
78.7881 7.67699 0
79.0079 0.185092 0
78.0211 6.71963 0
78.7796 0.133458 0
78.6041 -6.41872 0
79.6767 -0.575333 0
79.8312 6.0416 0
77.9238 0.737858 0
77.573 6.31041 0
77.1052 -6.82297 0
79.7899 -0.230438 0
75.4726 -5.83417 0
77.8974 -0.441664 0
76.2912 -5.74156 0
78.6142 2.54879 0
77.8578 0.120591 0
79.3209 -5.22506 0
77.86 -0.113195 0
75.592 -5.40551 0
76.9766 5.69403 0
76.9872 -4.26752 0
77.8819 -0.243888 0
75.8905 -4.63038 0
77.9792 3.14218 0
75.8279 1.99541 0
76.4724 4.92297 0
77.6676 -0.98595 0
75.7393 -5.13197 0
77.8286 0.402892 0
76.4026 6.64292 0
77.7394 -2.37857 0
77.8594 -0.0845522 0
75.4039 -4.62851 0
76.1288 5.93553 0
77.855 0.717918 0
76.0708 4.63919 0
75.7963 4.57914 0
77.8227 0.381228 0
74.9963 4.07725 0
74.5513 -4.15894 0
77.8512 -0.295797 0
74.25 -4.15069 0
76.6024 -1.97905 0
77.861 -0.201631 0
73.6216 -2.82926 0
75.0616 5.07298 0
77.7819 0.62187 0
76.288 3.25007 0
74.2287 -2.57017 0
77.7686 -0.312031 0
73.5827 -2.34095 0
73.9448 3.73352 0
77.779 0.266058 0
74.3424 3.5162 0
74.6382 2.86928 0
77.8582 0.0351965 0
73.8085 3.0558 0
74.9154 -1.51308 0
77.7211 -0.541804 0
74.21 -1.33306 0
73.0409 -0.849009 0
77.0788 -0.925491 0
73.0902 -0.718859 0
76.7883 0.959917 0
77.8031 0.0776156 0
75.9017 2.43557 0
73.5876 2.46162 0
77.68 0.0593554 0
73.1641 1.55461 0
77.4127 -0.236011 0
77.8454 -0.112111 0
73.0885 -0.236548 0
73.6099 -0.0929917 0
77.8224 -0.0661528 0
75.8102 0.308126 0
73.7763 0.527207 0
77.8328 -0.0622066 0
77.1907 -5.65623 0
77.9311 -0.43312 0
77.8484 0.132712 0
78.0365 6.88132 0
78.9857 -7.73433 0
82.0341 -0.944483 0
80.4234 0.995874 0
81.6698 8.60734 0
77.8055 0.279984 0
74.5104 4.85431 0
73.9818 -2.83726 0
77.8123 -0.201278 0
77.8833 -0.57327 0
77.5618 -3.66954 0
77.9522 0.802005 0
77.9111 0.200415 0
77.8155 -0.000611259 0
73.6563 2.05353 0
79.2906 0.466295 0
78.384 1.57631 0
78.7096 -1.37313 0
80.2352 -0.690686 0
85.8578 -1.26542 0
85.434 -8.44674 0
87.3342 8.05753 0
85.3885 0.467682 0
77.7477 1.6648 0
79.6272 7.99579 0
78.547 -7.07974 0
79.245 -2.31426 0
76.8955 -1.45987 0
74.6029 -0.221967 0
76.1641 5.82974 0
78.0681 1.89231 0
77.9063 -1.7899 0
74.7773 -4.6339 0
91.8011 -5.35771 0
88.5149 -0.658982 0
88.0852 0.788382 0
92.2493 4.45645 0
77.9473 -0.815479 0
77.8835 -0.0448208 0
77.8737 0.148439 0
78.9358 0.757271 0
83.1082 0.733725 0
82.7394 4.09986 0
81.19 -1.98785 0
84.3127 -1.7421 0
81.653 4.8936 0
84.6051 8.2927 0
83.4311 -8.67381 0
82.544 -1.91749 0
86.6342 1.60653 0
87.7224 5.01306 0
86.2768 -2.78373 0
87.4414 -0.0416199 0
90.6785 -0.250694 0
93.1195 -1.30005 0
92.9681 0.507468 0
89.8536 0.0278518 0
90.8936 0.00350481 0
92.4142 0.572679 0
92.196 -0.555641 0
91.0229 0.0367902 0
79.0033 -1.44774 0
78.4422 -0.574387 0
78.359 1.23734 0
79.172 0.950776 0
78.1978 1.22673 0
77.881 0.241188 0
77.857 -0.106821 0
78.1219 -1.1279 0
89.5319 0.950009 0
90.7712 1.87357 0
89.8588 -1.14059 0
90.0774 -0.16953 0
75.9417 -0.959601 0
77.8412 -0.155875 0
77.4536 -0.439858 0
77.8579 -0.375503 0
77.8493 0.205226 0
77.8639 0.967778 0
91.5501 0.971809 0
90.7364 0.152675 0
90.8549 -0.00485365 0
91.2952 -1.04894 0
81.6568 -0.039541 0
80.8912 -2.82441 0
81.9624 1.80339 0
80.6514 0.447854 0
77.8119 4.04628 0
77.3223 7.31672 0
77.0657 -6.26176 0
78.2755 -3.22851 0
78.7688 -2.11209 0
77.5132 -2.23059 0
77.9059 4.63878 0
78.2001 2.22573 0
91.0267 0.0492747 0
90.7451 0.143 0
90.9392 -0.0495853 0
91.9169 0.0957922 0
79.7441 -5.42205 0
80.831 -5.25792 0
80.4129 4.63907 0
80.9638 8.52779 0
79.0736 -3.98003 0
80.2431 -2.31329 0
80.0784 3.11665 0
79.2355 1.53716 0
90.8286 1.13136 0
90.279 0.140464 0
90.4934 -0.0113494 0
90.4331 -1.01625 0
77.2882 1.01534 0
77.8413 0.0294497 0
90.9196 -0.0557911 0
91.5626 -0.348121 0
91.2773 0.243873 0
90.769 0.0376017 0
78.8054 -0.956846 0
78.3314 -1.33294 0
79.1154 1.7428 0
78.2114 0.73583 0
77.8893 -0.147121 0
78.1318 -0.699378 0
77.9554 0.315569 0
77.8641 0.136414 0
74.0885 1.71319 0
76.9321 1.52499 0
87.0378 -3.14519 0
90.3906 -6.33384 0
91.356 5.78257 0
86.7488 2.26937 0
76.7816 -2.31376 0
74.7217 -2.90011 0
89.6594 0.153316 0
89.9268 0.866882 0
89.0129 0.0746512 0
89.6035 0.825031 0
89.9452 -0.845009 0
89.7777 -0.139101 0
89.3841 -0.691392 0
89.2887 -0.013791 0
90.6506 -0.211808 0
90.7766 -0.61055 0
90.6231 0.384391 0
90.3897 0.00777072 0
77.8513 0.179395 0
77.6666 0.539647 0
76.4287 0.452162 0
74.1817 0.84575 0
77.7817 -0.250221 0
77.8358 -0.169878 0
77.3593 0.274897 0
77.288 -0.750983 0
92.9329 -2.72545 0
89.7783 -1.74392 0
90.7618 2.21279 0
93.102 1.59657 0
78.0137 -0.0635535 0
78.1126 -0.365493 0
77.8884 0.0527808 0
78.2889 0.261212 0
90.1043 -0.202479 0
90.1322 -0.524349 0
90.1479 0.350269 0
89.783 0.11358 0
88.8514 0.166113 0
89.0281 0.519418 0
89.0583 -0.607598 0
88.936 -0.147714 0
78.4537 -0.899131 0
79.368 -2.13437 0
78.8098 1.61212 0
78.4344 1.27261 0
79.1371 2.88009 0
77.5606 1.85146 0
78.1026 -1.92304 0
78.7637 -2.79277 0
91.3627 -0.534809 0
92.3318 0.295939 0
92.5024 -0.289808 0
91.7844 0.572452 0
77.6725 -1.14936 0
77.7891 -1.36585 0
77.8153 1.0835 0
77.3169 1.30717 0
88.8807 0.540561 0
88.5983 0.162757 0
88.6545 -0.101202 0
88.8258 -0.46189 0
85.1358 4.26065 0
87.1465 7.1147 0
86.6387 -8.38102 0
86.1847 -3.33833 0
75.1995 -3.42323 0
77.5247 -3.51277 0
84.7573 -3.05742 0
85.4043 -1.09594 0
83.7523 0.453234 0
87.0859 3.10024 0
74.7943 4.62302 0
76.695 2.73189 0
89.5076 -0.0514573 0
89.6839 -0.535221 0
89.5648 0.353451 0
89.4773 0.0954292 0
88.9592 -0.368739 0
88.7306 -1.51078 0
89.2851 2.08168 0
88.3039 0.271352 0
83.1175 1.39489 0
81.3704 0.349964 0
82.4958 -0.336007 0
83.1593 -3.106 0
91.2413 0.315293 0
91.5312 0.843152 0
91.6873 -0.918043 0
91.5513 -0.0519478 0
82.1492 -3.82662 0
83.2458 -1.83442 0
82.4618 2.70757 0
85.0212 5.97702 0
88.5039 0.332305 0
88.378 0.063214 0
88.5393 -0.0991577 0
88.4994 -0.346688 0
89.035 -0.182401 0
89.1816 -0.00911739 0
89.1573 0.100667 0
89.0127 0.428827 0
79.9027 0.497246 0
79.6602 1.30297 0
79.9195 -1.14624 0
80.7649 -0.31838 0
81.4365 2.82359 0
79.8197 1.94783 0
79.204 -2.83297 0
78.3737 -2.86121 0
90.7123 -0.480948 0
90.4593 -0.278105 0
90.2741 0.375013 0
91.2215 0.624165 0
79.8138 3.84329 0
80.3193 2.56821 0
79.2772 -0.824541 0
79.1069 -0.293486 0
78.9462 0.265719 0
79.6655 0.888019 0
76.5505 -0.874494 0
77.5193 -1.34798 0
92.2941 -3.62995 0
89.8259 -2.06117 0
89.2749 3.74032 0
92.6846 3.69189 0
77.8857 -0.865634 0
77.8826 -0.142856 0
77.8218 0.198973 0
77.959 0.846608 0
78.2193 0.0873753 0
78.2426 0.625722 0
78.3927 -0.34351 0
78.5388 -0.0199547 0
75.4138 -0.268456 0
73.1043 0.151488 0
85.1411 3.21681 0
89.2346 2.96679 0
87.9201 -2.50879 0
88.5173 -4.96056 0
77.5695 2.06647 0
77.1306 1.15307 0
77.8576 -0.025246 0
77.6552 -0.0502729 0
80.3738 6.82773 0
78.2759 4.05555 0
80.013 -4.29456 0
79.0387 -8.09816 0
77.3659 0.785165 0
77.7692 0.424562 0
90.6594 0.511485 0
91.006 1.11463 0
90.7185 -1.01618 0
90.632 -0.199374 0
88.6668 -0.119726 0
88.8565 -0.0807747 0
88.8327 0.0693352 0
88.7502 0.400479 0
92.87 0.426727 0
91.7088 1.37381 0
91.7791 -0.552863 0
92.9964 -0.682125 0