# vtk DataFile Version 3.0
Unstructured Grid for Triangles
ASCII
DATASET UNSTRUCTURED_GRID
POINTS 29612 DOUBLE
-2.72397e-05 1.23686e-06 0
-2.95789e-05 9.5838e-07 0
-2.77865e-05 -3.1235e-07 0
0.0002024 5e-05 0
0.000203975 4.9875e-05 0
0.000205 5e-05 0
0.000203975 -4.9875e-05 0
0.0002024 -5e-05 0
0.000205 -5e-05 0
0.00020295 4.975e-05 0
0.00020295 -4.975e-05 0
0.000201925 4.9625e-05 0
0.000201925 -4.9625e-05 0
-5.29747e-05 -4.79887e-05 0
-5.5e-05 -5e-05 0
-5.24e-05 -5e-05 0
-5.05983e-05 -4.84325e-05 0
-4.98e-05 -5e-05 0
-4.72e-05 -5e-05 0
-4.83864e-05 -4.87761e-05 0
-4.46e-05 -5e-05 0
-4.59e-05 -4.84239e-05 0
-4.29453e-05 -4.24878e-05 0
-4.47486e-05 -4.20717e-05 0
-4.41829e-05 -4.36609e-05 0
-5.12578e-05 -4.62101e-05 0
-4.93077e-05 -4.53594e-05 0
-5.0706e-05 -4.39006e-05 0
-4.19243e-05 -4.77545e-05 0
-4.40307e-05 -4.71837e-05 0
-4.3691e-05 -4.86724e-05 0
-5.16129e-05 -4.20948e-05 0
-4.95355e-05 -4.15432e-05 0
-5.11646e-05 -4.0128e-05 0
-3.94697e-05 -4.81197e-05 0
-4.06302e-05 -4.55143e-05 0
-5.37257e-05 -3.88197e-05 0
-5.31099e-05 -4.07297e-05 0
-5.23982e-05 -3.88328e-05 0
-3.70063e-05 -4.72956e-05 0
-3.68e-05 -5e-05 0
-3.5308e-05 -4.85302e-05 0
-5.072e-05 -3.7867e-05 0
-4.85506e-05 -3.83975e-05 0
-4.90949e-05 -3.59622e-05 0
-3.37127e-05 -4.84331e-05 0
-3.16e-05 -5e-05 0
-3.26495e-05 -4.7415e-05 0
-5.5e-05 -3.5e-05 0
-5.31201e-05 -3.70361e-05 0
-5.28367e-05 -3.46817e-05 0
-3.63898e-05 -4.48809e-05 0
-3.83315e-05 -4.60336e-05 0
-3.26269e-06 -4.15503e-05 0
-5.99662e-06 -4.09556e-05 0
-5.46944e-06 -4.29488e-05 0
-5.29747e-05 4.79887e-05 0
-5.5e-05 5e-05 0
-5.5e-05 4.75e-05 0
-5.5e-05 4.5e-05 0
-5.34834e-05 4.29171e-05 0
-5.26943e-05 4.42611e-05 0
-5.34026e-05 4.60176e-05 0
-5.31099e-05 4.07297e-05 0
-5.11672e-05 4.01178e-05 0
-5.16129e-05 4.20948e-05 0
-5.24e-05 5e-05 0
-5.05983e-05 4.84325e-05 0
-5.31201e-05 3.70361e-05 0
-5.072e-05 3.7867e-05 0
-5.23982e-05 3.88328e-05 0
-4.8341e-05 4.69132e-05 0
-4.83679e-05 4.87539e-05 0
-5.28367e-05 3.46817e-05 0
-5.5e-05 3.25e-05 0
-5.25657e-05 3.28474e-05 0
-4.98e-05 5e-05 0
-5.30382e-05 3.125e-05 0
-4.19243e-05 4.77545e-05 0
-4.40015e-05 4.7335e-05 0
-4.25917e-05 4.63678e-05 0
-4.35138e-05 2.62661e-05 0
-4.14982e-05 2.74462e-05 0
-4.35654e-05 2.85217e-05 0
-4.59e-05 4.84239e-05 0
-4.36852e-05 4.87027e-05 0
-4.46e-05 5e-05 0
-5.33308e-05 2.92503e-05 0
-5.5e-05 2.75e-05 0
-5.23377e-05 2.76953e-05 0
-4.25282e-05 4.46352e-05 0
-4.09368e-05 4.35728e-05 0
-4.06302e-05 4.55143e-05 0
0.0002009 4.95e-05 0
0.0001998 5e-05 0
0.000199875 4.9375e-05 0
0.00019885 4.925e-05 0
0.0001972 5e-05 0
0.000197825 4.9125e-05 0
0.0001968 4.9e-05 0
0.000195775 4.8875e-05 0
0.0001946 5e-05 0
0.00019475 4.875e-05 0
0.000193725 4.8625e-05 0
0.000192 5e-05 0
0.0001927 4.85e-05 0
0.000191675 4.8375e-05 0
0.00019065 4.825e-05 0
0.0001894 5e-05 0
0.000189625 4.8125e-05 0
0.0001886 4.8e-05 0
0.0001868 5e-05 0
0.000187575 4.7875e-05 0
0.00018655 4.775e-05 0
0.000185515 4.8575e-05 0
0.0001842 5e-05 0
0.0001845 4.75e-05 0
0.000185525 4.7625e-05 0
0.000182564 4.829e-05 0
0.0001816 5e-05 0
0.00018245 4.725e-05 0
0.000183475 4.7375e-05 0
0.000181425 4.7125e-05 0
0.000180295 4.82657e-05 0
0.000179 5e-05 0
0.000179375 4.6875e-05 0
0.0001804 4.7e-05 0
0.000178168 4.80619e-05 0
0.0001764 5e-05 0
0.000177325 4.6625e-05 0
0.00017835 4.675e-05 0
0.000176428 4.76631e-05 0
0.0001763 4.65e-05 0
0.0001738 5e-05 0
0.0001751 4.84164e-05 0
0.000175275 4.6375e-05 0
0.000174025 4.75632e-05 0
0.0001712 5e-05 0
0.000172615 4.78449e-05 0
0.0001722 4.6e-05 0
0.000173225 4.6125e-05 0
0.00017015 4.575e-05 0
0.000171243 4.7381e-05 0
0.000169554 4.79999e-05 0
0.0001686 5e-05 0
0.000167507 4.79751e-05 0
0.000168498 4.64861e-05 0
0.000166 5e-05 0
0.00016558 4.71459e-05 0
0.000167135 4.62887e-05 0
0.0001681 4.55e-05 0
0.00016605 4.525e-05 0
0.000167075 4.5375e-05 0
0.000164059 4.61599e-05 0
0.00016394 4.79552e-05 0
0.000162881 4.6615e-05 0
0.000162975 4.4875e-05 0
0.000165025 4.5125e-05 0
0.000164 4.5e-05 0
0.000161754 4.58641e-05 0
0.000161722 4.78101e-05 0
0.000159956 4.58294e-05 0
0.000160925 4.4625e-05 0
0.00016195 4.475e-05 0
0.000157667 4.60322e-05 0
0.000158875 4.4375e-05 0
0.000159194 4.80155e-05 0
0.0001599 4.45e-05 0
0.00015785 4.425e-05 0
0.000155808 4.56757e-05 0
0.000155647 4.76701e-05 0
0.000154059 4.66642e-05 0
0.000153756 4.50083e-05 0
0.000154839 4.50446e-05 0
0.000156825 4.4125e-05 0
0.000151954 4.80508e-05 0
0.000154052 4.8477e-05 0
0.000153 5e-05 0
0.000154775 4.3875e-05 0
0.000152142 4.56625e-05 0
0.000152821 4.45753e-05 0
0.00015375 4.375e-05 0
0.0001504 5e-05 0
0.000149644 4.85168e-05 0
0.000151787 4.43178e-05 0
0.000152725 4.3625e-05 0
0.000150675 4.3375e-05 0
0.0001517 4.35e-05 0
0.000148119 4.50887e-05 0
0.000148072 4.75757e-05 0
0.000146584 4.63516e-05 0
0.000150008 4.6396e-05 0
0.000149351 4.4543e-05 0
0.00015061 4.46252e-05 0
0.0001476 4.3e-05 0
0.000148625 4.3125e-05 0
0.000146492 4.82975e-05 0
0.000144888 4.73562e-05 0
0.000146676 4.44259e-05 0
0.000145255 4.53656e-05 0
0.000145652 4.38669e-05 0
0.000141401 4.79821e-05 0
0.0001426 5e-05 0
0.00014 5e-05 0
0.000144374 4.38862e-05 0
0.00014555 4.275e-05 0
0.0001435 4.25e-05 0
0.000144525 4.2625e-05 0
0.000142746 4.38121e-05 0
0.000141288 4.43191e-05 0
0.000141707 4.32778e-05 0
0.00013921 4.38992e-05 0
0.000140355 4.5932e-05 0
0.000138302 4.5922e-05 0
0.000142912 4.58869e-05 0
0.000140592 4.30037e-05 0
0.00014145 4.225e-05 0
0.000136458 4.5869e-05 0
0.000137106 4.4063e-05 0
0.0001394 4.2e-05 0
0.000138259 4.28915e-05 0
0.000137484 4.77094e-05 0
0.000139166 4.78902e-05 0
0.00013586 4.78984e-05 0
0.000133449 4.78649e-05 0
0.000134717 4.61848e-05 0
0.000137256 4.25134e-05 0
0.000135323 4.24541e-05 0
0.000136325 4.1625e-05 0
0.000136122 4.2876e-05 0
0.000131206 4.47284e-05 0
0.000133168 4.56738e-05 0
0.000131773 4.65243e-05 0
0.000134756 4.40343e-05 0
0.000132747 4.36463e-05 0
0.000133483 4.26786e-05 0
0.000131081 4.1867e-05 0
0.000132382 4.22815e-05 0
0.000131507 4.3122e-05 0
0.000131059 4.80123e-05 0
0.00013325 4.125e-05 0
0.00012915 4.075e-05 0
0.00012982 4.18199e-05 0
0.000128915 4.26216e-05 0
0.000126366 4.47574e-05 0
0.000127331 4.30908e-05 0
0.000128781 4.44872e-05 0
0.000125336 4.28376e-05 0
0.000130218 4.31077e-05 0
0.000127894 4.16344e-05 0
0.000124774 4.69608e-05 0
0.000127668 4.64148e-05 0
0.000126591 4.8331e-05 0
0.000126722 4.18415e-05 0
0.000125768 4.11931e-05 0
0.000124326 4.13546e-05 0
0.00012505 4.025e-05 0
0.000122408 4.50118e-05 0
0.000120276 4.47432e-05 0
0.00012139 4.32235e-05 0
0.000124336 4.44132e-05 0
0.000123056 4.27595e-05 0
0.000122977 4.09049e-05 0
0.00012185 4.69217e-05 0
0.000122676 4.85947e-05 0
0.000120525 4.86094e-05 0
0.000121479 4.13153e-05 0
0.000119547 4.24221e-05 0
0.000120249 4.07448e-05 0
0.000119925 3.9625e-05 0
0.000119346 4.06114e-05 0
0.000117479 4.47279e-05 0
0.000114726 4.45259e-05 0
0.00011571 4.27814e-05 0
0.000119443 4.66611e-05 0
0.000117447 4.21596e-05 0
0.000118421 4.0752e-05 0
0.000117409 4.04437e-05 0
0.000116775 4.70073e-05 0
0.0001179 4.855e-05 0
0.000115473 4.84802e-05 0
0.00011685 3.925e-05 0
0.000117875 3.9375e-05 0
0.000115454 4.00551e-05 0
0.0001148 3.9e-05 0
0.000115825 3.9125e-05 0
0.000111704 4.23398e-05 0
0.000113786 4.26731e-05 0
0.000112589 4.43871e-05 0
0.000113234 4.06671e-05 0
0.000114754 4.13371e-05 0
0.0001106 4.42326e-05 0
0.000109703 4.24261e-05 0
0.00011275 3.875e-05 0
0.000113775 3.8875e-05 0
0.000110211 4.80875e-05 0
0.000108244 4.71951e-05 0
0.000109312 4.58413e-05 0
0.000111755 3.99116e-05 0
0.00010944 3.92972e-05 0
0.000110415 4.05876e-05 0
0.000108839 4.07536e-05 0
0.000106472 4.76905e-05 0
0.000107274 4.57868e-05 0
0.000108011 3.92415e-05 0
0.000106885 4.04365e-05 0
0.000106625 3.88708e-05 0
0.000105286 4.19254e-05 0
0.000105055 3.95469e-05 0
0.000104215 4.39764e-05 0
0.000106346 4.40629e-05 0
0.000100945 4.51249e-05 0
0.000102825 4.5614e-05 0
0.000101189 4.68452e-05 0
0.000107625 3.8125e-05 0
0.000105575 3.7875e-05 0
0.0001066 3.8e-05 0
0.000103352 4.76905e-05 0
0.000101803 4.8465e-05 0
0.000103685 3.89398e-05 0
0.00010245 3.8825e-05 0
0.000103525 3.7625e-05 0
0.000101092 3.99779e-05 0
0.000101267 3.82619e-05 0
0.000101382 4.2025e-05 0
0.000103187 4.05286e-05 0
0.000103359 4.24605e-05 0
9.87383e-05 4.5447e-05 0
9.99411e-05 4.35161e-05 0
9.744e-05 4.33145e-05 0
0.00010045 3.725e-05 0
0.000101475 3.7375e-05 0
9.70845e-05 4.65215e-05 0
9.52614e-05 4.67664e-05 0
9.61768e-05 4.49944e-05 0
9.9729e-05 3.87704e-05 0
9.78901e-05 3.9598e-05 0
9.85823e-05 3.81492e-05 0
9.62289e-05 3.93709e-05 0
9.74259e-05 3.81279e-05 0
9.7375e-05 3.6875e-05 0
9.63045e-05 3.76631e-05 0
9.58e-05 5e-05 0
9.32e-05 5e-05 0
9.47542e-05 4.8457e-05 0
9.49675e-05 3.85246e-05 0
9.36214e-05 3.89472e-05 0
9.40006e-05 3.74906e-05 0
9.66411e-05 4.12573e-05 0
9.44241e-05 4.07079e-05 0
9.03569e-05 4.24993e-05 0
9.21701e-05 4.02409e-05 0
9.27439e-05 4.27744e-05 0
8.89795e-05 4.09067e-05 0
9.03071e-05 4.0248e-05 0
9.25447e-05 3.77721e-05 0
9.3275e-05 3.6375e-05 0
9.07708e-05 3.87127e-05 0
9.11303e-05 3.70839e-05 0
9.11933e-05 4.55145e-05 0
9.30678e-05 4.73279e-05 0
9.11886e-05 4.82603e-05 0
8.87724e-05 3.88076e-05 0
8.99595e-05 3.75116e-05 0
9.02e-05 3.6e-05 0
8.89241e-05 3.6954e-05 0
8.36977e-05 4.59472e-05 0
8.36223e-05 4.83578e-05 0
8.20467e-05 4.74142e-05 0
8.71227e-05 4.03557e-05 0
8.61e-05 3.55e-05 0
8.68368e-05 3.65714e-05 0
8.5484e-05 3.6588e-05 0
8.47735e-05 4.02845e-05 0
8.23121e-05 4.21599e-05 0
8.26582e-05 3.98147e-05 0
8.46943e-05 4.2454e-05 0
8.38832e-05 3.78613e-05 0
8.35569e-05 3.63808e-05 0
8.44098e-05 3.6291e-05 0
8.5075e-05 3.5375e-05 0
8.51465e-05 4.77163e-05 0
8.3025e-05 3.5125e-05 0
8.22824e-05 3.68659e-05 0
8.1446e-05 3.57362e-05 0
8.05884e-05 3.71794e-05 0
7.53471e-05 4.77524e-05 0
7.38313e-05 4.73927e-05 0
7.39102e-05 4.61526e-05 0
7.9826e-05 3.58588e-05 0
7.88607e-05 3.76287e-05 0
7.81733e-05 3.57987e-05 0
8.16783e-05 3.84471e-05 0
8.07975e-05 4.04095e-05 0
7.52138e-05 4.04775e-05 0
7.67682e-05 4.17043e-05 0
7.49617e-05 4.21803e-05 0
7.52903e-05 3.84008e-05 0
7.38293e-05 3.93136e-05 0
[...]
CELL_DATA 58684
VECTORS velocity DOUBLE
74.1603 0.337067 0
86.2145 -0.000127735 0
86.1872 0.000112458 0
86.2197 -0.00232737 0
86.1916 0.00250227 0
86.2255 -0.00226043 0
86.1976 0.00234521 0
77.8739 -0.00203596 0
77.8858 -0.024075 0
77.9839 -0.00321711 0
78.0905 -0.00584493 0
78.1485 -0.408396 0
77.9157 -0.109727 0
78.2265 -0.134589 0
77.8959 -0.185009 0
78.4176 -0.171166 0
77.8742 -0.112113 0
78.7653 -0.157058 0
77.9418 -0.317266 0
79.263 -0.112602 0
77.8875 -0.114775 0
78.7367 -0.36888 0
85.2187 -2.17472 0
77.86 0.0120629 0
77.8611 0.0514345 0
77.8596 0.0249254 0
77.8943 0.141501 0
77.8855 0.023011 0
77.8904 0.188158 0
77.9819 0.0490782 0
77.8842 0.144814 0
77.9395 0.0327047 0
77.8468 0.144212 0
78.2959 0.163017 0
78.0086 1.13159 0
78.1553 0.0679435 0
77.8963 0.177974 0
78.37 0.354536 0
86.2331 0.00117207 0
86.2382 -0.000309724 0
86.2475 -0.00592327 0
86.2506 -0.0022331 0
86.2611 -0.000748623 0
86.2691 -0.00564799 0
86.272 -0.00686525 0
86.2761 -0.00249019 0
86.2846 -0.000560446 0
86.291 -0.00763141 0
86.2929 -0.00479957 0
86.3027 -0.00146919 0
86.3105 -0.00870915 0
86.3123 -0.00871547 0
86.3153 -0.00431862 0
86.3236 -0.00119216 0
86.3293 -0.00962365 0
86.3304 -0.00718329 0
86.3398 -0.00245448 0
86.3479 -0.0118576 0
86.3495 -0.011363 0
86.3518 -0.0059935 0
86.3623 -0.000943071 0
86.3638 -0.0132577 0
86.3723 -0.0091609 0
86.3834 -0.000897881 0
86.3841 -0.0165984 0
86.387 -0.0133678 0
86.3948 -0.0117604 0
86.4019 -0.00146589 0
86.4033 -0.0161121 0
86.4109 -0.012494 0
86.4203 -0.00253203 0
86.4206 -0.0183379 0
86.4263 -0.0135774 0
86.4335 -0.0221856 0
86.4428 -0.00136656 0
86.4447 -0.016948 0
86.4505 -0.0109821 0
86.463 -0.00245121 0
86.4645 -0.0230094 0
86.4855 -0.0195605 0
86.4682 -0.0185039 0
86.4869 -0.00152219 0
86.4946 -0.0119695 0
86.489 -0.0239449 0
86.517 -0.0144569 0
86.5122 -0.0195204 0
86.509 -0.027229 0
86.5204 -0.0321631 0
86.5413 -0.0209771 0
86.5551 -0.0297077 0
86.5326 -0.0251557 0
86.5486 -0.0357269 0
86.5663 -0.0271433 0
86.5619 -0.0277476 0
86.5705 -0.0381688 0
86.6013 -0.0365874 0
86.5845 -0.0302972 0
86.5918 -0.0402914 0
86.609 -0.0468753 0
86.615 -0.0354012 0
86.6387 -0.0422175 0
86.6178 -0.0374831 0
86.6408 -0.0117404 0
86.6432 -0.0475501 0
86.6619 -0.0454506 0
86.6537 -0.0483791 0
86.663 -0.0140529 0
86.6681 -0.0519515 0
86.6837 -0.0566397 0
86.7005 -0.0324936 0
86.6973 -0.0349809 0
86.6839 -0.0471948 0
86.7166 -0.0610376 0
86.7144 -0.0248738 0
86.7435 -0.0563662 0
86.7307 -0.0364509 0
86.7629 -0.00346162 0
86.7545 -0.0642851 0
86.7686 -0.0715278 0
86.7978 -0.0645459 0
86.8153 -0.0485585 0
86.7719 -0.0383165 0
86.8065 -0.0734844 0
86.8389 -0.0496676 0
86.8351 -0.0768759 0
86.8092 -0.0268738 0
86.8474 -0.0701529 0
86.8579 -0.0268737 0
86.8594 -0.0807627 0
86.8848 -0.0924782 0
86.9143 -0.0551566 0
86.9095 -0.0769094 0
86.882 -0.0360027 0
86.9469 -0.100059 0
86.8937 -0.0290625 0
86.9276 -0.0994943 0
86.9892 -0.112804 0
86.9998 -0.0797638 0
87.0156 -0.0964869 0
86.9766 -0.0944209 0
87.004 -0.103846 0
86.9701 -0.0444031 0
87.0451 -0.119778 0
87.0693 -0.132045 0
87.0976 -0.0869595 0
87.024 -0.0629494 0
87.0652 -0.113123 0
87.0847 -0.133324 0
87.0451 -0.0268541 0
87.1493 -0.144806 0
87.1613 -0.159131 0
87.1996 -0.0989459 0
87.1166 -0.0844031 0
87.1748 -0.133555 0
87.1951 -0.160942 0
87.1361 -0.0289425 0
87.2128 -0.185377 0
87.2601 -0.199383 0
87.2732 -0.141589 0
87.2701 -0.16338 0
87.3189 -0.151443 0
87.3005 -0.20763 0
87.2987 -0.0548368 0
87.3097 -0.195641 0
87.3808 -0.20199 0
87.3536 -0.0669332 0
87.4454 -0.240845 0
87.4718 -0.223188 0
87.4518 -0.142217 0
87.5139 -0.109856 0
87.4487 -0.24651 0
87.4852 -0.27144 0
87.4857 -0.0556537 0
87.5567 -0.27853 0
87.6054 -0.286797 0
87.5279 -0.205796 0
87.5911 -0.131472 0
87.6291 -0.17127 0
87.6355 -0.327233 0
87.6757 -0.113325 0
87.701 -0.30785 0
87.7329 -0.303228 0
87.7562 -0.35422 0
87.7093 -0.00530982 0
87.857 -0.354898 0
87.7443 -0.273813 0
87.8657 -0.249362 0
87.9346 -0.291491 0
87.9057 -0.394436 0
87.9634 -0.398953 0
87.8269 -0.0899923 0
88.0022 -0.388737 0
88.0281 -0.448227 0
88.0422 -0.431226 0
88.1385 -0.10109 0
88.027 -0.343586 0
88.1968 -0.498117 0
88.2494 -0.378827 0
88.1712 -0.319489 0
88.2579 -0.527087 0
88.2413 -0.519642 0
88.1262 -0.0902586 0
88.3473 -0.580045 0
88.3852 -0.544811 0
88.5687 -0.104839 0
88.486 -0.598938 0
88.3298 -0.418249 0
88.5868 -0.38321 0
88.6508 -0.494664 0
88.5421 -0.54369 0
88.5666 -0.649655 0
88.6284 -0.235191 0
88.7435 -0.627511 0
88.6956 -0.722915 0
88.8893 -0.734335 0
88.8491 -0.0110859 0
88.8432 -0.605461 0
88.9023 -0.760087 0
88.7417 -0.187919 0
88.9673 -0.800328 0
89.0631 -0.460925 0
89.0136 -0.837011 0
89.2312 -0.258429 0
89.1898 -0.720559 0
89.153 -0.848969 0
89.0936 -0.130577 0
89.2975 -0.876368 0
89.4841 -0.85467 0
89.3275 -0.729049 0
89.3739 -0.439209 0
89.5168 -0.982605 0
89.5312 -0.385006 0
89.6967 -0.0665996 0
89.4641 -0.773081 0
89.6374 -0.97294 0
89.7261 -1.04548 0
89.7614 -0.327689 0
89.8784 -0.901981 0
90.0382 -0.987652 0
89.8437 -0.111752 0
90.191 -0.960845 0
90.0997 -1.07357 0
89.9614 -0.795765 0
90.0269 -0.384424 0
90.144 -0.449352 0
90.2609 -1.0799 0
90.2063 -0.00645991 0
90.3705 -1.15213 0
90.5108 -1.09292 0
90.4648 -1.151 0
90.4563 -0.251179 0
90.5827 -0.938298 0
90.8403 -0.950275 0
90.4292 -0.00452977 0
90.9301 -1.12985 0
91.1188 -0.959894 0
90.7577 -0.695068 0
90.5888 -0.287428 0
91.1106 -1.0849 0
90.7546 -0.355605 0
90.5749 -0.0166647 0
91.0468 -0.729307 0
91.3836 -0.985951 0
91.5559 -0.919323 0
90.7519 -0.0750086 0
91.5139 -0.626206 0
91.6484 -0.822377 0
90.6219 0.0314226 0
91.793 -0.810516 0
91.9882 -0.676883 0
91.6113 -0.234701 0
90.3865 0.010049 0
92.153 -0.447555 0
91.2937 0.202505 0
91.5305 0.312104 0
92.0278 -0.292957 0
91.8065 -0.0271886 0
92.4968 -0.0499914 0
90.5141 0.376652 0
92.4794 -0.155417 0
92.035 0.426106 0
92.6926 0.500199 0
90.4278 0.109638 0
92.6546 1.21346 0
92.4269 1.44761 0
89.0666 0.199242 0
92.8803 0.90099 0
92.7838 1.38708 0
90.4266 1.49256 0
90.1736 0.712445 0
91.7112 1.12933 0
92.6835 1.92717 0
89.3195 0.332857 0
92.1885 2.82509 0
92.8631 2.17037 0
92.8766 2.4004 0
88.5605 1.42545 0
91.2119 2.95107 0
92.2463 3.21623 0
88.5412 0.235319 0
92.0593 3.72188 0
91.712 3.59676 0
90.7422 5.23027 0
86.2608 0.398215 0
91.8797 4.93159 0
89.887 3.55496 0
88.0176 1.57596 0
87.6319 3.00258 0
91.6444 5.44048 0
90.5084 5.88539 0
86.7019 0.612207 0
90.5782 6.71541 0
86.2048 -0.000772484 0
86.2103 0.000243683 0
86.2187 0.00532722 0
86.2217 0.0016775 0
86.2314 0.000755794 0
86.2391 0.00534139 0
86.2417 0.00574747 0
86.2461 0.00166401 0
86.2539 0.0006279 0
86.2601 0.00731323 0
86.2618 0.00450053 0
86.2712 0.00143841 0
86.2785 0.00814473 0
86.2803 0.00827085 0
86.2832 0.00408903 0
86.2914 0.0011744 0
86.2969 0.00937993 0
86.2982 0.00678695 0
86.3075 0.00243546 0
86.3154 0.0117626 0
86.317 0.0111957 0
86.328 0.0143706 0
86.3193 0.00586346 0
86.3361 0.00956803 0
86.3483 0.0149978 0
86.3397 0.00928996 0
86.3547 0.0137621 0
86.3626 0.01196 0
86.369 0.0184706 0
86.359 0.00910769 0
86.3786 0.01267 0
86.386 0.0205361 0
86.3783 0.00969285 0
86.4018 0.0232762 0
86.4052 0.0207324 0
86.4107 0.0165465 0
86.3982 0.0121198 0
86.4133 0.0174759 0
86.4297 0.0172115 0
86.4192 0.0113061 0
86.4448 0.0284322 0
86.4446 0.0107625 0
86.4552 0.0199495 0
86.4408 0.0147815 0
86.4589 0.024413 0
86.4794 0.0277634 0
86.4871 0.0148621 0
86.476 0.0251397 0
86.4967 0.0302791 0
86.4994 0.0324967 0
86.5219 0.0172746 0
86.5122 0.0212543 0
86.5258 0.0300318 0
86.5396 0.0417149 0
86.5465 0.020413 0
86.5522 0.0342235 0
86.5605 0.043587 0
86.5726 0.0254583 0
86.5553 0.0305283 0
86.5811 0.0481435 0
86.5835 0.0454955 0
86.5912 0.0292794 0
86.6016 0.0210346 0
86.6109 0.0421193 0
86.557 0.0140245 0
86.6259 0.0490322 0
86.6562 0.0577672 0
86.6402 0.0488685 0
86.6263 0.0297178 0
86.6677 0.0579152 0
86.674 0.0519127 0
86.6888 0.0252229 0
86.6575 0.048082 0
86.6953 0.0541941 0
86.7106 0.0626507 0
86.6631 0.0153009 0
86.6988 0.0446672 0
86.7434 0.0720831 0
86.7068 0.0370389 0
86.7536 0.0649105 0
86.7802 0.0763271 0
86.7569 0.0559902 0
86.7709 0.0231875 0
86.789 0.0664903 0
86.806 0.078687 0
86.7833 0.0201573 0
86.8275 0.0860038 0
86.7959 0.0616532 0
86.8483 0.0724196 0
86.8101 0.0491851 0
86.8579 0.0925747 0
86.9127 0.112118 0
86.8695 0.0286399 0
86.8717 0.0764368 0
86.9357 0.119091 0
86.913 0.084318 0
86.8587 0.0349676 0
86.95 0.110683 0
86.9703 0.117013 0
86.9276 0.0289099 0
86.9711 0.0534998 0
86.9997 0.102848 0
87.0168 0.135856 0
86.9484 0.0721226 0
87.0446 0.133345 0
87.0636 0.142066 0
87.0604 0.0493236 0
87.0426 0.088843 0
87.1089 0.159337 0
87.1018 0.135892 0
87.0064 0.0449702 0
87.1258 0.153 0
87.1717 0.164656 0
87.1432 0.0660533 0
87.1389 0.14012 0
87.2256 0.197248 0
87.2121 0.150665 0
87.0915 0.0475993 0
87.2482 0.185042 0
87.3127 0.226339 0
87.1972 0.0652221 0
87.2989 0.18022 0
87.275 0.0843552 0
87.3389 0.189797 0
87.2547 0.106359 0
87.3698 0.241013 0
87.424 0.24286 0
87.3298 0.0671113 0
87.415 0.236843 0
87.4892 0.274796 0
87.4439 0.0707226 0
87.3852 0.198968 0
87.48 0.235411 0
87.5356 0.279802 0
87.4175 0.0422168 0
87.5471 0.255435 0
87.6458 0.3326 0
87.6262 0.279468 0
87.5606 0.0845812 0
87.6986 0.292688 0
87.5153 0.107089 0
87.549 0.24545 0
87.6888 0.323679 0
87.7956 0.368686 0
87.8052 0.377984 0
87.532 0.00646044 0
87.9027 0.43108 0
87.9144 0.419691 0
87.9401 0.372086 0
87.8752 0.182936 0
87.9813 0.200084 0
87.9545 0.416403 0
87.7259 0.112955 0
88.0773 0.470753 0
88.068 0.461967 0
88.0758 0.415371 0
87.9664 0.120548 0
88.158 0.46345 0
88.282 0.578678 0
88.1409 0.2165 0
88.0841 0.229731 0
88.2419 0.46824 0
88.4088 0.602982 0
88.0029 0.142232 0
88.448 0.637404 0
88.4885 0.620238 0
88.3018 0.121696 0
88.6316 0.710664 0
88.6658 0.682046 0
88.7392 0.588708 0
88.5164 0.25849 0
88.4822 0.292992 0
88.6513 0.659315 0
88.383 0.188508 0
88.8198 0.786928 0
88.8753 0.742781 0
88.8784 0.685345 0
88.6096 0.104166 0
89.0536 0.808038 0
89.0726 0.825942 0
88.9115 0.464582 0
89.1738 0.650643 0
88.9304 0.376226 0
89.1302 0.791877 0
88.8147 0.239516 0
89.2924 0.922782 0
89.3191 0.892092 0
88.8569 0.190538 0
89.3948 0.822409 0
89.5825 0.948587 0
89.492 0.926053 0
89.3804 0.216314 0
89.7993 0.992483 0
89.845 1.05975 0
89.3283 0.641177 0
89.7414 0.785793 0
89.3941 0.390988 0
90.0484 1.11584 0
89.5814 0.121661 0
90.1157 1.08395 0
90.1124 1.0263 0
89.3923 0.0960319 0
90.0467 0.930133 0
90.448 1.09917 0
90.5451 1.10931 0
89.9996 0.280421 0
90.6238 1.08232 0
90.6744 1.15453 0
89.97 0.70295 0
90.6932 0.76062 0
90.1687 0.271273 0
90.8484 1.15243 0
90.1993 0.1005 0
91.0031 1.07518 0
91.0979 1.05918 0
90.0182 0.0711003 0
90.9199 0.876527 0
91.4031 0.987436 0
91.5739 0.922009 0
90.4767 0.17698 0
91.4059 0.862496 0
91.7209 0.872334 0
91.0177 0.746223 0
91.5169 0.431161 0
90.5705 0.110266 0
91.484 0.779978 0
90.5925 0.0401674 0
91.9796 0.763456 0
92.0717 0.612616 0
90.4803 0.0390662 0
91.7782 0.297982 0
92.2337 0.324404 0
92.4304 0.186723 0
90.6154 -0.0986448 0
92.5265 -0.0200042 0
92.5769 -0.158825 0
90.7715 -0.273522 0
92.5937 -0.189504 0
91.794 -0.645953 0
91.034 -0.093557 0
90.835 0.000582517 0
92.7373 -0.486086 0
92.4986 -0.888612 0
92.9374 -1.06841 0
90.5064 -0.00648309 0
92.2161 -1.34283 0
92.9452 -1.81409 0
90.4734 -0.125828 0
92.0443 -1.30918 0
92.9244 -2.36082 0
91.4934 -1.78165 0
90.4579 -0.664463 0
92.7331 -2.71313 0
92.5952 -3.00825 0
91.4407 -1.12511 0
90.9033 -3.17016 0
88.8732 -2.61171 0
92.2358 -3.04426 0
89.276 -0.410206 0
92.2227 -4.0038 0
89.652 7.31447 0
90.3838 6.54096 0
85.0007 1.9318 0
89.5485 7.27018 0
87.314 6.64835 0
88.8884 7.90195 0
85.5884 0.759453 0
87.909 8.10278 0
86.7397 7.9713 0
84.3413 0.963984 0
86.8116 8.49941 0
92.1339 -4.42504 0
89.5144 -0.253859 0
91.8678 -4.77151 0
90.6287 -5.16806 0
90.0728 -4.44925 0
88.6337 -0.27109 0
90.8691 -5.76166 0
85.5155 7.76125 0
90.2161 -7.04118 0
88.3885 -1.40757 0
89.8938 -6.80501 0
89.0293 -7.77035 0
83.1907 2.3699 0
88.5927 -7.6241 0
89.8083 -4.2595 0
89.0858 -6.90995 0
87.2283 -5.1117 0
86.287 -0.841207 0
88.1479 -7.01445 0
87.3563 -7.42326 0
84.8901 8.18918 0
87.4277 -7.43577 0
87.1195 -0.456708 0
86.3991 -7.78488 0
85.8847 -8.4913 0
85.6093 -0.565994 0
84.7976 -8.63216 0
85.3073 -6.33789 0
83.4469 -0.655538 0
83.7848 -8.78256 0
83.8652 -4.87093 0
85.5737 -3.83964 0
84.3325 -7.5205 0
83.2247 -7.86889 0
85.8864 4.40412 0
82.2866 0.530559 0
85.2964 2.94447 0
83.9554 -0.0748245 0
82.6774 -8.53455 0
84.5157 7.75576 0
82.0164 0.385161 0
83.9472 6.59707 0
81.815 -8.39672 0
83.5263 -1.71836 0
81.1159 -6.12766 0
83.937 8.83796 0
80.9061 2.02571 0
83.8352 8.76232 0
81.6276 7.30166 0
81.1925 0.413123 0
82.2557 7.68053 0
81.7201 -6.37838 0
83.0412 -0.474422 0
80.964 -8.5241 0
80.9824 -8.29025 0
82.6267 8.24942 0
80.7112 7.86008 0
80.5059 0.0420961 0
81.7673 8.11727 0
79.9214 5.08224 0
80.5033 2.28812 0
80.0432 -8.46965 0
80.9725 -1.09822 0
80.3772 -8.34509 0
79.5842 8.31162 0
79.4224 -7.73738 0
80.1071 -1.07712 0
79.7324 -3.39935 0
78.166 -7.43012 0
81.1952 -4.11043 0
78.0259 -7.18541 0
79.6073 -0.290408 0
77.1142 -6.8639 0
79.2749 2.86471 0
79.8785 0.461314 0
79.1618 6.97813 0
79.2706 0.116869 0
78.9541 8.18803 0
78.6701 7.68246 0
78.954 0.185213 0
77.9139 6.72216 0
78.7354 0.133512 0
78.5001 -6.42346 0
79.6046 -0.575099 0
79.7222 6.04762 0
77.9055 0.735679 0
77.4704 6.31161 0
77.0001 -6.8242 0
79.7177 -0.2303 0
75.3762 -5.83448 0
77.8864 -0.440624 0
76.1965 -5.74248 0
78.5494 2.54887 0
77.8565 0.120326 0
79.2212 -5.2268 0
77.8585 -0.11285 0
75.5012 -5.40627 0
76.8803 5.69419 0
76.9056 -4.26571 0
77.8766 -0.24272 0
75.806 -4.6289 0
77.9111 3.14098 0
75.7671 1.99276 0
76.3827 4.92194 0
77.6414 -0.984107 0
75.6489 -5.13059 0
77.8197 0.40214 0
76.2996 6.64367 0
77.6846 -2.37631 0
77.8582 -0.0841533 0
75.3201 -4.62809 0
76.0306 5.93518 0
77.8389 0.716051 0
75.9876 4.63772 0
75.7096 4.57765 0
77.8137 0.380609 0
74.9146 4.07617 0
74.4652 -4.15595 0
77.8442 -0.294755 0
74.1634 -4.14934 0
76.5466 -1.97621 0
77.8566 -0.200656 0
73.5423 -2.82709 0
74.9723 5.07186 0
77.7639 0.620041 0
76.2198 3.24815 0
74.1517 -2.56769 0
77.7567 -0.311355 0
73.5061 -2.33937 0
73.8599 3.73072 0
77.7669 0.26491 0
74.2618 3.51518 0
74.5633 2.86693 0
77.8567 0.0348846 0
73.7277 3.05456 0
74.851 -1.51092 0
77.7024 -0.540251 0
74.1413 -1.33193 0
72.9637 -0.848418 0
77.0397 -0.923269 0
73.0143 -0.718741 0
76.7435 0.958707 0
77.7956 0.0780213 0
75.8352 2.43279 0
73.5078 2.45926 0
77.6645 0.0593812 0
73.0853 1.55366 0
77.3865 -0.235559 0
77.8425 -0.112034 0
73.0128 -0.236267 0
73.5389 -0.092539 0
77.8153 -0.065885 0
75.7558 0.306969 0
73.7048 0.526105 0
77.8278 -0.0620176 0
77.0982 -5.65651 0
77.9187 -0.432083 0
77.8455 0.132724 0
77.9274 6.88411 0
78.8641 -7.74194 0
81.9228 -0.946149 0
80.3362 0.997097 0
81.5291 8.6232 0
77.7976 0.279507 0
74.4207 4.85245 0
73.9042 -2.83667 0
77.8085 -0.201335 0
77.8688 -0.572418 0
77.4864 -3.66893 0
77.931 0.800651 0
77.9069 0.199221 0
77.8073 -0.00053492 0
73.58 2.05238 0
79.2286 0.465883 0
78.3385 1.5748 0
78.6594 -1.37319 0
80.152 -0.691006 0
85.6993 -1.27368 0
85.2738 -8.47862 0
87.164 8.09642 0
85.2355 0.469645 0
77.7063 1.66253 0
79.5019 8.00491 0
78.4351 -7.08391 0
79.1744 -2.31476 0
76.8515 -1.45829 0
74.5381 -0.221408 0
76.067 5.82937 0
78.0228 1.88968 0
77.8626 -1.78832 0
74.6914 -4.63294 0
91.6157 -5.41344 0
88.319 -0.664023 0
87.8989 0.793803 0
92.0574 4.50883 0
77.926 -0.814123 0
77.8794 -0.0444557 0
77.8676 0.148282 0
78.884 0.756571 0
82.9827 0.738124 0
82.6117 4.11163 0
81.0884 -1.99132 0
84.1714 -1.74971 0
81.5315 4.9022 0
84.45 8.32037 0
83.2806 -8.69758 0
82.4231 -1.92216 0
86.4662 1.61587 0
87.5501 5.0435 0
86.1143 -2.79883 0
87.2601 -0.0430904 0
90.4223 -0.252681 0
92.901 -1.32039 0
92.7272 0.511246 0
89.6252 0.0296084 0
90.5638 0.00260048 0
92.1158 0.594788 0
91.8907 -0.578213 0
90.7243 0.0367909 0
78.9469 -1.44666 0
78.4046 -0.572931 0
78.3183 1.23649 0
79.1136 0.94992 0
78.1624 1.22493 0
77.8757 0.2401 0
77.8555 -0.106762 0
78.0909 -1.1256 0
89.3231 0.959065 0
90.5593 1.89359 0
89.6439 -1.15213 0
89.8421 -0.171884 0
75.8899 -0.95876 0
77.8339 -0.155073 0
77.4298 -0.439018 0
77.8487 -0.373848 0
77.8447 0.204946 0
77.8393 0.966293 0
91.1761 1.00473 0
90.3406 0.157524 0
90.5082 -0.00403792 0
90.8915 -1.08296 0
81.5524 -0.0409892 0
80.7939 -2.82798 0
81.8498 1.80724 0
80.5612 0.448604 0
77.7354 4.0443 0
77.2125 7.32005 0
76.9657 -6.26166 0
78.2079 -3.22653 0
78.71 -2.11027 0
77.4625 -2.22942 0
77.8212 4.63866 0
78.1459 2.22415 0
90.7321 0.0475275 0
90.4744 0.142534 0
90.6475 -0.0490893 0
91.6204 0.10463 0
79.6377 -5.42744 0
80.7166 -5.26579 0
80.3091 4.64452 0
80.8295 8.54258 0
78.9875 -3.98202 0
80.1558 -2.31572 0
79.9873 3.12029 0
79.172 1.5364 0
90.3778 1.16776 0
89.8208 0.143567 0
90.0723 -0.0109568 0
89.9435 -1.04634 0
77.2526 1.01287 0
77.8377 0.0298337 0
90.576 -0.058985 0
91.2282 -0.363515 0
90.9369 0.253437 0
90.3966 0.0389774 0
78.7563 -0.95579 0
78.2918 -1.33116 0
79.0543 1.74255 0
78.1823 0.73531 0
77.885 -0.146441 0
78.1068 -0.69771 0
77.9422 0.314838 0
77.8604 0.136163 0
74.0173 1.71256 0
76.8841 1.52257 0
86.8732 -3.16384 0
90.2091 -6.38406 0
91.1699 5.83698 0
86.5838 2.28348 0
76.7227 -2.31101 0
74.6473 -2.89812 0
89.1153 0.158848 0
89.3865 0.89015 0
88.3896 0.0745789 0
89.0191 0.845752 0
89.4018 -0.868325 0
89.2504 -0.142513 0
88.7716 -0.705567 0
88.7009 -0.0139557 0
90.2425 -0.21909 0
90.3482 -0.63136 0
90.1983 0.397315 0
89.952 0.00738689 0
77.8458 0.179084 0
77.6467 0.537972 0
76.3841 0.452226 0
74.1119 0.845139 0
77.7694 -0.248769 0
77.8313 -0.16958 0
77.332 0.274497 0
77.2545 -0.74883 0
92.7332 -2.76641 0
89.573 -1.76055 0
90.5574 2.23592 0
92.8874 1.62148 0
77.9974 -0.0634788 0
78.0899 -0.365385 0
77.8831 0.0522387 0
78.2595 0.260566 0
89.617 -0.208237 0
89.6308 -0.539415 0
89.6627 0.361082 0
89.2576 0.116097 0
88.1956 0.166002 0
88.3823 0.527715 0
88.3978 -0.61572 0
88.292 -0.148781 0
78.4156 -0.89811 0
79.3005 -2.13358 0
78.7534 1.6123 0
78.3912 1.272 0
79.0633 2.88052 0
77.5153 1.84923 0
78.0562 -1.92155 0
78.6952 -2.79203 0
91.1018 -0.537081 0
92.0459 0.311068 0
92.2172 -0.304457 0
91.5252 0.576014 0
77.6409 -1.14693 0
77.755 -1.36341 0
77.7875 1.08092 0
77.2781 1.30449 0
88.2002 0.544485 0
87.906 0.161334 0
87.9694 -0.101955 0
88.1391 -0.46367 0
84.9878 4.27757 0
86.9807 7.14986 0
86.4705 -8.4185 0
86.0286 -3.35584 0
75.1236 -3.42163 0
77.4536 -3.51245 0
84.6139 -3.06924 0
85.2508 -1.10009 0
83.6194 0.45454 0
86.9151 3.1198 0
74.7087 4.62228 0
76.635 2.73052 0
88.952 -0.0514865 0
89.1236 -0.549432 0
89.0058 0.363212 0
88.9145 0.0993912 0
88.752 -0.371695 0
88.5351 -1.52265 0
89.0889 2.09981 0
88.1107 0.273882 0
82.9947 1.39833 0
81.2687 0.350956 0
82.3784 -0.336604 0
83.0294 -3.11621 0
90.8936 0.32871 0
91.1673 0.871435 0
91.3278 -0.94897 0
91.2447 -0.0600399 0
82.0304 -3.83561 0
83.1191 -1.84072 0
82.3428 2.71436 0
84.8714 5.99946 0
87.7827 0.327454 0
87.6579 0.0618679 0
87.8418 -0.0996155 0
87.769 -0.339443 0
88.4034 -0.185597 0
88.5789 -0.00869692 0
88.5499 0.103075 0
88.3663 0.433594 0
79.8282 0.496958 0
79.5887 1.30347 0
79.8438 -1.14728 0
80.6741 -0.31858 0
81.3317 2.82853 0
79.7438 1.94947 0
79.1282 -2.83471 0
78.3103 -2.85941 0
90.4615 -0.485018 0
90.2103 -0.280254 0
90.0352 0.377829 0
90.9675 0.630205 0
79.7201 3.84699 0
80.2308 2.57022 0
79.2151 -0.823478 0
79.0503 -0.292624 0
78.8963 0.265067 0
79.5941 0.888912 0
76.5038 -0.872757 0
77.4827 -1.34568 0
92.0992 -3.67655 0
89.6268 -2.08069 0
89.0908 3.77105 0
92.4892 3.74062 0
77.8647 -0.864424 0
77.8796 -0.142007 0
77.8176 0.198992 0
77.9377 0.844191 0
78.1937 0.0874311 0
78.2127 0.624275 0
78.3592 -0.343745 0
78.5015 -0.0205446 0
75.3543 -0.267983 0
73.029 0.151217 0
84.9919 3.22966 0
89.0446 2.99051 0
87.7421 -2.5247 0
88.3436 -4.99432 0
77.5209 2.06387 0
77.0895 1.14968 0
77.8565 -0.0250448 0
77.6385 -0.0497009 0
80.2537 6.83726 0
78.1947 4.05479 0
79.9149 -4.29935 0
78.9143 -8.10595 0
77.3365 0.783973 0
77.7563 0.423871 0
90.2322 0.528359 0
90.575 1.1505 0
90.2634 -1.04893 0
90.2182 -0.205671 0
87.9859 -0.120473 0
88.209 -0.0818064 0
88.1788 0.0701137 0
88.0629 0.401523 0
92.625 0.429441 0
91.4835 1.39003 0
91.5238 -0.556033 0
92.7632 -0.690107 0
77.4464 0.107694 0