# vtk DataFile Version 3.0
Unstructured Grid for Triangles
ASCII
DATASET UNSTRUCTURED_GRID
POINTS 29612 DOUBLE
-2.72397e-05 1.23686e-06 0
-2.95789e-05 9.5838e-07 0
-2.77865e-05 -3.1235e-07 0
0.0002024 5e-05 0
0.000203975 4.9875e-05 0
0.000205 5e-05 0
0.000203975 -4.9875e-05 0
0.0002024 -5e-05 0
0.000205 -5e-05 0
0.00020295 4.975e-05 0
0.00020295 -4.975e-05 0
0.000201925 4.9625e-05 0
0.000201925 -4.9625e-05 0
-5.29747e-05 -4.79887e-05 0
-5.5e-05 -5e-05 0
-5.24e-05 -5e-05 0
-5.05983e-05 -4.84325e-05 0
-4.98e-05 -5e-05 0
-4.72e-05 -5e-05 0
-4.83864e-05 -4.87761e-05 0
-4.46e-05 -5e-05 0
-4.59e-05 -4.84239e-05 0
-4.29453e-05 -4.24878e-05 0
-4.47486e-05 -4.20717e-05 0
-4.41829e-05 -4.36609e-05 0
-5.12578e-05 -4.62101e-05 0
-4.93077e-05 -4.53594e-05 0
-5.0706e-05 -4.39006e-05 0
-4.19243e-05 -4.77545e-05 0
-4.40307e-05 -4.71837e-05 0
-4.3691e-05 -4.86724e-05 0
-5.16129e-05 -4.20948e-05 0
-4.95355e-05 -4.15432e-05 0
-5.11646e-05 -4.0128e-05 0
-3.94697e-05 -4.81197e-05 0
-4.06302e-05 -4.55143e-05 0
-5.37257e-05 -3.88197e-05 0
-5.31099e-05 -4.07297e-05 0
-5.23982e-05 -3.88328e-05 0
-3.70063e-05 -4.72956e-05 0
-3.68e-05 -5e-05 0
-3.5308e-05 -4.85302e-05 0
-5.072e-05 -3.7867e-05 0
-4.85506e-05 -3.83975e-05 0
-4.90949e-05 -3.59622e-05 0
-3.37127e-05 -4.84331e-05 0
-3.16e-05 -5e-05 0
-3.26495e-05 -4.7415e-05 0
-5.5e-05 -3.5e-05 0
-5.31201e-05 -3.70361e-05 0
-5.28367e-05 -3.46817e-05 0
-3.63898e-05 -4.48809e-05 0
-3.83315e-05 -4.60336e-05 0
-3.26269e-06 -4.15503e-05 0
-5.99662e-06 -4.09556e-05 0
-5.46944e-06 -4.29488e-05 0
-5.29747e-05 4.79887e-05 0
-5.5e-05 5e-05 0
-5.5e-05 4.75e-05 0
-5.5e-05 4.5e-05 0
-5.34834e-05 4.29171e-05 0
-5.26943e-05 4.42611e-05 0
-5.34026e-05 4.60176e-05 0
-5.31099e-05 4.07297e-05 0
-5.11672e-05 4.01178e-05 0
-5.16129e-05 4.20948e-05 0
-5.24e-05 5e-05 0
-5.05983e-05 4.84325e-05 0
-5.31201e-05 3.70361e-05 0
-5.072e-05 3.7867e-05 0
-5.23982e-05 3.88328e-05 0
-4.8341e-05 4.69132e-05 0
-4.83679e-05 4.87539e-05 0
-5.28367e-05 3.46817e-05 0
-5.5e-05 3.25e-05 0
-5.25657e-05 3.28474e-05 0
-4.98e-05 5e-05 0
-5.30382e-05 3.125e-05 0
-4.19243e-05 4.77545e-05 0
-4.40015e-05 4.7335e-05 0
-4.25917e-05 4.63678e-05 0
-4.35138e-05 2.62661e-05 0
-4.14982e-05 2.74462e-05 0
-4.35654e-05 2.85217e-05 0
-4.59e-05 4.84239e-05 0
-4.36852e-05 4.87027e-05 0
-4.46e-05 5e-05 0
-5.33308e-05 2.92503e-05 0
-5.5e-05 2.75e-05 0
-5.23377e-05 2.76953e-05 0
-4.25282e-05 4.46352e-05 0
-4.09368e-05 4.35728e-05 0
-4.06302e-05 4.55143e-05 0
0.0002009 4.95e-05 0
0.0001998 5e-05 0
0.000199875 4.9375e-05 0
0.00019885 4.925e-05 0
0.0001972 5e-05 0
0.000197825 4.9125e-05 0
0.0001968 4.9e-05 0
0.000195775 4.8875e-05 0
0.0001946 5e-05 0
0.00019475 4.875e-05 0
0.000193725 4.8625e-05 0
0.000192 5e-05 0
0.0001927 4.85e-05 0
0.000191675 4.8375e-05 0
0.00019065 4.825e-05 0
0.0001894 5e-05 0
0.000189625 4.8125e-05 0
0.0001886 4.8e-05 0
0.0001868 5e-05 0
0.000187575 4.7875e-05 0
0.00018655 4.775e-05 0
0.000185515 4.8575e-05 0
0.0001842 5e-05 0
0.0001845 4.75e-05 0
0.000185525 4.7625e-05 0
0.000182564 4.829e-05 0
0.0001816 5e-05 0
0.00018245 4.725e-05 0
0.000183475 4.7375e-05 0
0.000181425 4.7125e-05 0
0.000180295 4.82657e-05 0
0.000179 5e-05 0
0.000179375 4.6875e-05 0
0.0001804 4.7e-05 0
0.000178168 4.80619e-05 0
0.0001764 5e-05 0
0.000177325 4.6625e-05 0
0.00017835 4.675e-05 0
0.000176428 4.76631e-05 0
0.0001763 4.65e-05 0
0.0001738 5e-05 0
0.0001751 4.84164e-05 0
0.000175275 4.6375e-05 0
0.000174025 4.75632e-05 0
0.0001712 5e-05 0
0.000172615 4.78449e-05 0
0.0001722 4.6e-05 0
0.000173225 4.6125e-05 0
0.00017015 4.575e-05 0
0.000171243 4.7381e-05 0
0.000169554 4.79999e-05 0
0.0001686 5e-05 0
0.000167507 4.79751e-05 0
0.000168498 4.64861e-05 0
0.000166 5e-05 0
0.00016558 4.71459e-05 0
0.000167135 4.62887e-05 0
0.0001681 4.55e-05 0
0.00016605 4.525e-05 0
0.000167075 4.5375e-05 0
0.000164059 4.61599e-05 0
0.00016394 4.79552e-05 0
0.000162881 4.6615e-05 0
0.000162975 4.4875e-05 0
0.000165025 4.5125e-05 0
0.000164 4.5e-05 0
0.000161754 4.58641e-05 0
0.000161722 4.78101e-05 0
0.000159956 4.58294e-05 0
0.000160925 4.4625e-05 0
0.00016195 4.475e-05 0
0.000157667 4.60322e-05 0
0.000158875 4.4375e-05 0
0.000159194 4.80155e-05 0
0.0001599 4.45e-05 0
0.00015785 4.425e-05 0
0.000155808 4.56757e-05 0
0.000155647 4.76701e-05 0
0.000154059 4.66642e-05 0
0.000153756 4.50083e-05 0
0.000154839 4.50446e-05 0
0.000156825 4.4125e-05 0
0.000151954 4.80508e-05 0
0.000154052 4.8477e-05 0
0.000153 5e-05 0
0.000154775 4.3875e-05 0
0.000152142 4.56625e-05 0
0.000152821 4.45753e-05 0
0.00015375 4.375e-05 0
0.0001504 5e-05 0
0.000149644 4.85168e-05 0
0.000151787 4.43178e-05 0
0.000152725 4.3625e-05 0
0.000150675 4.3375e-05 0
0.0001517 4.35e-05 0
0.000148119 4.50887e-05 0
0.000148072 4.75757e-05 0
0.000146584 4.63516e-05 0
0.000150008 4.6396e-05 0
0.000149351 4.4543e-05 0
0.00015061 4.46252e-05 0
0.0001476 4.3e-05 0
0.000148625 4.3125e-05 0
0.000146492 4.82975e-05 0
0.000144888 4.73562e-05 0
0.000146676 4.44259e-05 0
0.000145255 4.53656e-05 0
0.000145652 4.38669e-05 0
0.000141401 4.79821e-05 0
0.0001426 5e-05 0
0.00014 5e-05 0
0.000144374 4.38862e-05 0
0.00014555 4.275e-05 0
0.0001435 4.25e-05 0
0.000144525 4.2625e-05 0
0.000142746 4.38121e-05 0
0.000141288 4.43191e-05 0
0.000141707 4.32778e-05 0
0.00013921 4.38992e-05 0
0.000140355 4.5932e-05 0
0.000138302 4.5922e-05 0
0.000142912 4.58869e-05 0
0.000140592 4.30037e-05 0
0.00014145 4.225e-05 0
0.000136458 4.5869e-05 0
0.000137106 4.4063e-05 0
0.0001394 4.2e-05 0
0.000138259 4.28915e-05 0
0.000137484 4.77094e-05 0
0.000139166 4.78902e-05 0
0.00013586 4.78984e-05 0
0.000133449 4.78649e-05 0
0.000134717 4.61848e-05 0
0.000137256 4.25134e-05 0
0.000135323 4.24541e-05 0
0.000136325 4.1625e-05 0
0.000136122 4.2876e-05 0
0.000131206 4.47284e-05 0
0.000133168 4.56738e-05 0
0.000131773 4.65243e-05 0
0.000134756 4.40343e-05 0
0.000132747 4.36463e-05 0
0.000133483 4.26786e-05 0
0.000131081 4.1867e-05 0
0.000132382 4.22815e-05 0
0.000131507 4.3122e-05 0
0.000131059 4.80123e-05 0
0.00013325 4.125e-05 0
0.00012915 4.075e-05 0
0.00012982 4.18199e-05 0
0.000128915 4.26216e-05 0
0.000126366 4.47574e-05 0
0.000127331 4.30908e-05 0
0.000128781 4.44872e-05 0
0.000125336 4.28376e-05 0
0.000130218 4.31077e-05 0
0.000127894 4.16344e-05 0
0.000124774 4.69608e-05 0
0.000127668 4.64148e-05 0
0.000126591 4.8331e-05 0
0.000126722 4.18415e-05 0
0.000125768 4.11931e-05 0
0.000124326 4.13546e-05 0
0.00012505 4.025e-05 0
0.000122408 4.50118e-05 0
0.000120276 4.47432e-05 0
0.00012139 4.32235e-05 0
0.000124336 4.44132e-05 0
0.000123056 4.27595e-05 0
0.000122977 4.09049e-05 0
0.00012185 4.69217e-05 0
0.000122676 4.85947e-05 0
0.000120525 4.86094e-05 0
0.000121479 4.13153e-05 0
0.000119547 4.24221e-05 0
0.000120249 4.07448e-05 0
0.000119925 3.9625e-05 0
0.000119346 4.06114e-05 0
0.000117479 4.47279e-05 0
0.000114726 4.45259e-05 0
0.00011571 4.27814e-05 0
0.000119443 4.66611e-05 0
0.000117447 4.21596e-05 0
0.000118421 4.0752e-05 0
0.000117409 4.04437e-05 0
0.000116775 4.70073e-05 0
0.0001179 4.855e-05 0
0.000115473 4.84802e-05 0
0.00011685 3.925e-05 0
0.000117875 3.9375e-05 0
0.000115454 4.00551e-05 0
0.0001148 3.9e-05 0
0.000115825 3.9125e-05 0
0.000111704 4.23398e-05 0
0.000113786 4.26731e-05 0
0.000112589 4.43871e-05 0
0.000113234 4.06671e-05 0
0.000114754 4.13371e-05 0
0.0001106 4.42326e-05 0
0.000109703 4.24261e-05 0
0.00011275 3.875e-05 0
0.000113775 3.8875e-05 0
0.000110211 4.80875e-05 0
0.000108244 4.71951e-05 0
0.000109312 4.58413e-05 0
0.000111755 3.99116e-05 0
0.00010944 3.92972e-05 0
0.000110415 4.05876e-05 0
0.000108839 4.07536e-05 0
0.000106472 4.76905e-05 0
0.000107274 4.57868e-05 0
0.000108011 3.92415e-05 0
0.000106885 4.04365e-05 0
0.000106625 3.88708e-05 0
0.000105286 4.19254e-05 0
0.000105055 3.95469e-05 0
0.000104215 4.39764e-05 0
0.000106346 4.40629e-05 0
0.000100945 4.51249e-05 0
0.000102825 4.5614e-05 0
0.000101189 4.68452e-05 0
0.000107625 3.8125e-05 0
0.000105575 3.7875e-05 0
0.0001066 3.8e-05 0
0.000103352 4.76905e-05 0
0.000101803 4.8465e-05 0
0.000103685 3.89398e-05 0
0.00010245 3.8825e-05 0
0.000103525 3.7625e-05 0
0.000101092 3.99779e-05 0
0.000101267 3.82619e-05 0
0.000101382 4.2025e-05 0
0.000103187 4.05286e-05 0
0.000103359 4.24605e-05 0
9.87383e-05 4.5447e-05 0
9.99411e-05 4.35161e-05 0
9.744e-05 4.33145e-05 0
0.00010045 3.725e-05 0
0.000101475 3.7375e-05 0
9.70845e-05 4.65215e-05 0
9.52614e-05 4.67664e-05 0
9.61768e-05 4.49944e-05 0
9.9729e-05 3.87704e-05 0
9.78901e-05 3.9598e-05 0
9.85823e-05 3.81492e-05 0
9.62289e-05 3.93709e-05 0
9.74259e-05 3.81279e-05 0
9.7375e-05 3.6875e-05 0
9.63045e-05 3.76631e-05 0
9.58e-05 5e-05 0
9.32e-05 5e-05 0
9.47542e-05 4.8457e-05 0
9.49675e-05 3.85246e-05 0
9.36214e-05 3.89472e-05 0
9.40006e-05 3.74906e-05 0
9.66411e-05 4.12573e-05 0
9.44241e-05 4.07079e-05 0
9.03569e-05 4.24993e-05 0
9.21701e-05 4.02409e-05 0
9.27439e-05 4.27744e-05 0
8.89795e-05 4.09067e-05 0
9.03071e-05 4.0248e-05 0
9.25447e-05 3.77721e-05 0
9.3275e-05 3.6375e-05 0
9.07708e-05 3.87127e-05 0
9.11303e-05 3.70839e-05 0
9.11933e-05 4.55145e-05 0
9.30678e-05 4.73279e-05 0
9.11886e-05 4.82603e-05 0
8.87724e-05 3.88076e-05 0
8.99595e-05 3.75116e-05 0
9.02e-05 3.6e-05 0
8.89241e-05 3.6954e-05 0
8.36977e-05 4.59472e-05 0
8.36223e-05 4.83578e-05 0
8.20467e-05 4.74142e-05 0
8.71227e-05 4.03557e-05 0
8.61e-05 3.55e-05 0
8.68368e-05 3.65714e-05 0
8.5484e-05 3.6588e-05 0
8.47735e-05 4.02845e-05 0
8.23121e-05 4.21599e-05 0
8.26582e-05 3.98147e-05 0
8.46943e-05 4.2454e-05 0
8.38832e-05 3.78613e-05 0
8.35569e-05 3.63808e-05 0
8.44098e-05 3.6291e-05 0
8.5075e-05 3.5375e-05 0
8.51465e-05 4.77163e-05 0
8.3025e-05 3.5125e-05 0
8.22824e-05 3.68659e-05 0
8.1446e-05 3.57362e-05 0
8.05884e-05 3.71794e-05 0
7.53471e-05 4.77524e-05 0
7.38313e-05 4.73927e-05 0
7.39102e-05 4.61526e-05 0
7.9826e-05 3.58588e-05 0
7.88607e-05 3.76287e-05 0
7.81733e-05 3.57987e-05 0
8.16783e-05 3.84471e-05 0
8.07975e-05 4.04095e-05 0
7.52138e-05 4.04775e-05 0
7.67682e-05 4.17043e-05 0
7.49617e-05 4.21803e-05 0
7.52903e-05 3.84008e-05 0
7.38293e-05 3.93136e-05 0
[...]
CELL_DATA 58684
VECTORS velocity DOUBLE
73.8764 0.336992 0
85.1875 -0.000261653 0
85.1617 0.000295314 0
85.1897 9.4114e-05 0
85.1623 -0.000405943 0
85.1961 -0.0018322 0
85.1684 0.00187359 0
77.8508 -0.00367072 0
77.8517 -0.0228783 0
77.9082 -0.00491697 0
77.9868 -0.00811601 0
78.0264 -0.406128 0
77.8626 -0.109847 0
78.0941 -0.133774 0
77.8487 -0.18582 0
78.2548 -0.173093 0
77.8503 -0.110912 0
78.5555 -0.156425 0
77.8743 -0.316812 0
79.0084 -0.115409 0
77.8658 -0.112402 0
78.5337 -0.366473 0
84.6492 -2.16797 0
77.8513 0.0112649 0
77.8432 0.0512855 0
77.8515 0.024946 0
77.8554 0.139748 0
77.8513 0.0219654 0
77.8577 0.188174 0
77.9088 0.0493109 0
77.8613 0.144078 0
77.8786 0.0313677 0
77.8217 0.145284 0
78.1523 0.163947 0
77.8764 1.12771 0
78.0375 0.0667345 0
77.8747 0.174746 0
78.2125 0.354489 0
85.1988 -0.00207099 0
85.2013 -0.00057732 0
85.2099 -0.00306296 0
85.2131 -0.00439657 0
85.2155 -0.00108211 0
85.2222 -0.00364757 0
85.2251 -0.00578449 0
85.2272 -0.00436804 0
85.2301 -0.000903017 0
85.2366 -0.00616405 0
85.2383 -0.00606584 0
85.24 -0.00116062 0
85.2477 -0.0067829 0
85.249 -0.0081332 0
85.2505 -0.00602948 0
85.2531 -0.00120133 0
85.2588 -0.00808598 0
85.2599 -0.00724696 0
85.2615 -0.00142016 0
85.2699 -0.0100274 0
85.2708 -0.0106362 0
85.2718 -0.00687054 0
85.2759 -0.000852917 0
85.2801 -0.0127943 0
85.2835 -0.00919614 0
85.291 -0.000981131 0
85.2938 -0.0149696 0
85.2949 -0.0144952 0
85.2985 -0.0105858 0
85.3028 -0.000976137 0
85.306 -0.0163697 0
85.3097 -0.0111534 0
85.3141 -0.00108857 0
85.3184 -0.0184843 0
85.322 -0.0139703 0
85.3289 -0.0212763 0
85.3306 -0.000897407 0
85.3354 -0.0161765 0
85.3392 -0.0102787 0
85.346 -0.00157897 0
85.3506 -0.0229407 0
85.3658 -0.0177917 0
85.3529 -0.0187579 0
85.3656 -0.00156003 0
85.3725 -0.0123924 0
85.3683 -0.0235039 0
85.3913 -0.0153485 0
85.3861 -0.0202581 0
85.3861 -0.0270358 0
85.3958 -0.0336364 0
85.4121 -0.0214862 0
85.4253 -0.0297089 0
85.4052 -0.0259866 0
85.4192 -0.0375368 0
85.4325 -0.0293175 0
85.431 -0.0284616 0
85.4387 -0.0397165 0
85.4649 -0.0357883 0
85.4482 -0.031872 0
85.4579 -0.0425525 0
85.4746 -0.0482831 0
85.477 -0.0358343 0
85.5006 -0.0448533 0
85.481 -0.0390593 0
85.5018 -0.0144214 0
85.5059 -0.0488381 0
85.5233 -0.0456709 0
85.5165 -0.0508537 0
85.5232 -0.0134458 0
85.5299 -0.0539137 0
85.5449 -0.0605411 0
85.5594 -0.0339752 0
85.5562 -0.0363176 0
85.543 -0.0497781 0
85.5753 -0.0648439 0
85.5723 -0.0268457 0
85.6032 -0.0586035 0
85.5889 -0.0379233 0
85.6202 -0.00218513 0
85.612 -0.0660245 0
85.6263 -0.0772788 0
85.6568 -0.0672228 0
85.6742 -0.0516458 0
85.6303 -0.0408888 0
85.6655 -0.0772182 0
85.6989 -0.052354 0
85.6949 -0.0814225 0
85.6702 -0.0298137 0
85.7064 -0.0731859 0
85.7196 -0.0270728 0
85.7202 -0.0856252 0
85.7472 -0.0990787 0
85.7794 -0.0596338 0
85.7726 -0.0825545 0
85.7454 -0.0382992 0
85.8117 -0.107648 0
85.757 -0.0303889 0
85.7909 -0.10672 0
85.8555 -0.119822 0
85.8693 -0.0844744 0
85.8859 -0.105659 0
85.8447 -0.100669 0
85.8713 -0.10992 0
85.8378 -0.0489657 0
85.9149 -0.127426 0
85.9404 -0.140109 0
85.975 -0.0935032 0
85.8957 -0.0690116 0
85.9352 -0.120511 0
85.9572 -0.143287 0
85.92 -0.028465 0
86.0274 -0.153523 0
86.0406 -0.171381 0
86.0856 -0.106227 0
85.9952 -0.0941612 0
86.0552 -0.144688 0
86.0774 -0.17226 0
86.0189 -0.0304324 0
86.0958 -0.199557 0
86.1477 -0.215165 0
86.1661 -0.153663 0
86.1594 -0.176434 0
86.2165 -0.163387 0
86.1911 -0.224139 0
86.1987 -0.0595036 0
86.2019 -0.210857 0
86.2798 -0.216585 0
86.2582 -0.0706453 0
86.3512 -0.259023 0
86.3813 -0.239735 0
86.3631 -0.151507 0
86.4356 -0.117514 0
86.3546 -0.264643 0
86.3947 -0.292771 0
86.4047 -0.0602055 0
86.4739 -0.297081 0
86.5288 -0.306588 0
86.4445 -0.220024 0
86.5189 -0.13707 0
86.5603 -0.184422 0
86.561 -0.351319 0
86.6139 -0.119373 0
86.6341 -0.32731 0
86.6698 -0.322202 0
86.696 -0.377384 0
86.6529 -0.00387528 0
86.8074 -0.376625 0
86.6829 -0.290339 0
86.8193 -0.26202 0
86.8965 -0.306232 0
86.8597 -0.416581 0
86.9241 -0.421304 0
86.7816 -0.0943743 0
86.9663 -0.40762 0
86.9956 -0.471764 0
87.0109 -0.453936 0
87.1234 -0.104194 0
86.9961 -0.360194 0
87.1812 -0.520516 0
87.2399 -0.393491 0
87.1543 -0.330982 0
87.2475 -0.549462 0
87.2309 -0.543004 0
87.1093 -0.0930285 0
87.3464 -0.602585 0
87.3874 -0.564025 0
87.5891 -0.106077 0
87.4967 -0.618396 0
87.3276 -0.432202 0
87.6062 -0.391603 0
87.6761 -0.504495 0
87.5569 -0.55997 0
87.5862 -0.667204 0
87.6519 -0.238627 0
87.7757 -0.637216 0
87.7263 -0.740202 0
87.9349 -0.744549 0
87.8882 -0.00967993 0
87.8805 -0.614567 0
87.9495 -0.769229 0
87.7734 -0.19049 0
88.0197 -0.809438 0
88.116 -0.461407 0
88.0687 -0.846804 0
88.293 -0.255508 0
88.254 -0.719334 0
88.2185 -0.850597 0
88.1472 -0.131355 0
88.3718 -0.875237 0
88.5672 -0.846926 0
88.3964 -0.727128 0
88.4442 -0.434391 0
88.6043 -0.974376 0
88.6097 -0.378386 0
88.7829 -0.0650306 0
88.5436 -0.763589 0
88.7318 -0.958903 0
88.8244 -1.03221 0
88.8513 -0.318464 0
88.9779 -0.88317 0
89.1475 -0.963481 0
88.9373 -0.109433 0
89.3052 -0.931641 0
89.2141 -1.04614 0
89.0605 -0.776252 0
89.1283 -0.371943 0
89.2503 -0.432572 0
89.381 -1.04522 0
89.3206 -0.00477264 0
89.4944 -1.11483 0
89.639 -1.05155 0
89.592 -1.11035 0
89.5801 -0.236798 0
89.7075 -0.899933 0
89.9761 -0.903217 0
89.5607 -0.00277041 0
90.0688 -1.07683 0
90.2604 -0.906797 0
89.8864 -0.659745 0
89.7164 -0.26907 0
90.2536 -1.02747 0
89.8863 -0.331722 0
89.7264 -0.013038 0
90.1879 -0.682683 0
90.5323 -0.923576 0
90.7074 -0.856519 0
89.9032 -0.0599956 0
90.6674 -0.572111 0
90.8028 -0.758442 0
89.7895 0.0393072 0
90.9512 -0.742194 0
91.1495 -0.607728 0
90.7724 -0.188865 0
89.5792 0.0118807 0
91.3192 -0.378121 0
90.4697 0.232909 0
90.7106 0.347363 0
91.1958 -0.230307 0
90.9768 0.0246701 0
91.6711 0.0161784 0
89.7167 0.39006 0
91.6521 -0.0865745 0
91.22 0.476808 0
91.8769 0.564368 0
89.6258 0.114931 0
91.8508 1.26726 0
91.6303 1.49571 0
88.3358 0.200762 0
92.0724 0.96289 0
91.9863 1.43813 0
89.6681 1.50985 0
89.4017 0.723677 0
90.9188 1.16497 0
91.896 1.97172 0
88.5815 0.334895 0
91.4223 2.85994 0
92.0765 2.2202 0
92.0927 2.44784 0
87.8642 1.42878 0
90.4639 2.97511 0
91.4881 3.24838 0
87.8383 0.237627 0
91.3073 3.74967 0
90.9659 3.61739 0
90.0334 5.2363 0
85.6464 0.398261 0
91.1473 4.94706 0
89.1803 3.56464 0
87.3434 1.57656 0
86.9855 2.99828 0
90.9215 5.45129 0
89.8141 5.88568 0
86.0771 0.61255 0
89.8823 6.71214 0
85.1709 0.00198035 0
85.1732 0.000570783 0
85.1806 0.00253915 0
85.1834 0.00395566 0
85.1852 0.00104893 0
85.1916 0.00341168 0
85.1941 0.0053107 0
85.196 0.00436311 0
85.1989 0.000898788 0
85.2048 0.00549306 0
85.2065 0.0054001 0
85.2077 0.00113031 0
85.2149 0.00635382 0
85.2162 0.00768169 0
85.2176 0.00569182 0
85.2199 0.00118404 0
85.2255 0.00799963 0
85.2267 0.00722964 0
85.2283 0.00140759 0
85.2365 0.00983328 0
85.2374 0.0104418 0
85.2457 0.0129786 0
85.2385 0.00673516 0
85.2501 0.00804828 0
85.2576 0.0131882 0
85.2501 0.00938083 0
85.262 0.0145608 0
85.2655 0.0107076 0
85.2722 0.0166032 0
85.2633 0.00908129 0
85.2767 0.0114974 0
85.2848 0.0188824 0
85.277 0.00929472 0
85.2966 0.0219589 0
85.2977 0.0211843 0
85.302 0.0153811 0
85.291 0.0112159 0
85.3033 0.0167088 0
85.3158 0.0157161 0
85.3072 0.0106503 0
85.3284 0.0282697 0
85.3252 0.0118015 0
85.3351 0.0183233 0
85.3239 0.0145402 0
85.3378 0.0241611 0
85.3565 0.0277058 0
85.3612 0.0158675 0
85.3526 0.0257261 0
85.3708 0.0294283 0
85.3727 0.0337122 0
85.3895 0.0166402 0
85.383 0.021949 0
85.3963 0.0303018 0
85.4092 0.0427778 0
85.412 0.020423 0
85.4186 0.0328562 0
85.428 0.0450473 0
85.4357 0.025781 0
85.4192 0.0322724 0
85.4472 0.0494478 0
85.448 0.048272 0
85.4531 0.0303346 0
85.4634 0.0216378 0
85.4733 0.0450403 0
85.4225 0.0136626 0
85.4895 0.051516 0
85.5185 0.0620314 0
85.5021 0.0524456 0
85.4871 0.0307288 0
85.5289 0.0627389 0
85.5355 0.0547118 0
85.5481 0.0271439 0
85.5179 0.0509632 0
85.5556 0.0577982 0
85.5711 0.0663778 0
85.5228 0.0157846 0
85.5592 0.0478391 0
85.6029 0.0773875 0
85.5669 0.0390321 0
85.6128 0.0669915 0
85.641 0.081152 0
85.6157 0.0596706 0
85.6319 0.0242906 0
85.6492 0.0715636 0
85.6666 0.0823751 0
85.6449 0.0206425 0
85.6895 0.0910422 0
85.6549 0.0670063 0
85.7087 0.0747768 0
85.6705 0.0520892 0
85.7213 0.0989926 0
85.7772 0.119347 0
85.7338 0.0300803 0
85.7348 0.0818084 0
85.8027 0.126537 0
85.7781 0.0910779 0
85.7229 0.03738 0
85.8175 0.118913 0
85.8387 0.124981 0
85.7961 0.0310394 0
85.8395 0.0548894 0
85.8692 0.1098 0
85.8875 0.14615 0
85.8172 0.0774528 0
85.9169 0.140864 0
85.9382 0.152545 0
85.9392 0.0515546 0
85.9163 0.0929922 0
85.9859 0.171201 0
85.9803 0.14603 0
85.8805 0.0477562 0
86.0049 0.164528 0
86.0535 0.176771 0
86.0287 0.0698078 0
86.0203 0.151347 0
86.1132 0.211395 0
86.0989 0.16291 0
85.9726 0.0519802 0
86.1372 0.19816 0
86.2077 0.243133 0
86.0894 0.0692287 0
86.1937 0.194023 0
86.1735 0.0900768 0
86.2382 0.204184 0
86.1508 0.115587 0
86.2701 0.258494 0
86.33 0.259982 0
86.2344 0.0711332 0
86.32 0.254446 0
86.4021 0.294947 0
86.3607 0.0752098 0
86.2889 0.214463 0
86.3931 0.252285 0
86.4538 0.298914 0
86.3329 0.0460081 0
86.4666 0.272915 0
86.5757 0.355866 0
86.555 0.298304 0
86.4905 0.089876 0
86.6355 0.312173 0
86.4385 0.11533 0
86.4697 0.262612 0
86.6237 0.34557 0
86.7419 0.391167 0
86.7534 0.401632 0
86.4587 0.00654843 0
86.86 0.457686 0
86.8737 0.444886 0
86.9035 0.392741 0
86.8353 0.19229 0
86.9512 0.206928 0
86.9186 0.439495 0
86.6716 0.119173 0
87.0524 0.493558 0
87.0427 0.485919 0
87.0523 0.436341 0
86.9374 0.126174 0
87.1415 0.483218 0
87.2781 0.6037 0
87.1257 0.225481 0
87.0651 0.239057 0
87.2355 0.48758 0
87.4158 0.623071 0
86.9757 0.14846 0
87.459 0.660041 0
87.5034 0.639399 0
87.3022 0.124563 0
87.6583 0.729943 0
87.696 0.698677 0
87.7729 0.5992 0
87.5329 0.263504 0
87.4975 0.298973 0
87.6797 0.674049 0
87.3892 0.194381 0
87.8621 0.802321 0
87.9217 0.753375 0
87.9229 0.69284 0
87.6317 0.105214 0
88.113 0.814102 0
88.1342 0.830511 0
87.9565 0.466103 0
88.2358 0.652095 0
87.9765 0.378348 0
88.1946 0.794282 0
87.8516 0.240676 0
88.3672 0.920896 0
88.397 0.887578 0
87.8979 0.192241 0
88.4721 0.816167 0
88.674 0.935752 0
88.5769 0.916866 0
88.4506 0.213386 0
88.9013 0.973742 0
88.9495 1.04078 0
88.4009 0.635137 0
88.8324 0.77035 0
88.4663 0.386323 0
89.1604 1.09061 0
88.6627 0.119204 0
89.2302 1.05583 0
89.2255 0.996899 0
88.465 0.0947549 0
89.1547 0.903898 0
89.5733 1.06075 0
89.6726 1.06783 0
89.1011 0.270283 0
89.754 1.03797 0
89.8056 1.10742 0
89.0726 0.681004 0
89.8211 0.723226 0
89.2779 0.259363 0
89.9838 1.10077 0
89.3113 0.0949494 0
90.1417 1.02144 0
90.2382 1.00336 0
89.1211 0.0696056 0
90.0559 0.829122 0
90.5499 0.924724 0
90.7232 0.858825 0
89.6031 0.162992 0
90.5531 0.802498 0
90.8744 0.805014 0
90.1556 0.701938 0
90.6713 0.383007 0
89.706 0.097562 0
90.6338 0.719944 0
89.7371 0.034097 0
91.1368 0.693485 0
91.2315 0.544405 0
89.6148 0.0363492 0
90.9404 0.241897 0
91.399 0.256627 0
91.5995 0.11905 0
89.7941 -0.105892 0
91.7002 -0.0878833 0
91.7524 -0.223794 0
89.9604 -0.291104 0
91.7713 -0.256378 0
90.9844 -0.688638 0
90.1999 -0.11881 0
89.9946 -0.0170103 0
91.9206 -0.551553 0
91.69 -0.942483 0
92.1286 -1.12827 0
89.6863 -0.00858886 0
91.4218 -1.38807 0
92.1489 -1.86686 0
89.671 -0.131785 0
91.249 -1.35108 0
92.1376 -2.4083 0
90.7204 -1.81294 0
89.6739 -0.677713 0
91.9544 -2.75458 0
91.8229 -3.04601 0
90.6467 -1.15695 0
90.1636 -3.19016 0
88.1811 -2.61371 0
91.4711 -3.0754 0
88.5397 -0.413902 0
91.4707 -4.02968 0
88.9815 7.302 0
89.6933 6.53692 0
84.4422 1.92822 0
88.8841 7.25586 0
86.697 6.63011 0
88.2355 7.88165 0
85.0055 0.760251 0
87.2793 8.07766 0
86.1373 7.94295 0
83.8113 0.962153 0
86.2039 8.4694 0
91.3893 -4.44633 0
88.7678 -0.256477 0
91.1331 -4.78738 0
89.9212 -5.17301 0
89.3677 -4.45551 0
87.929 -0.273198 0
90.1614 -5.76507 0
84.9465 7.72956 0
89.5286 -7.03292 0
87.704 -1.4105 0
89.2146 -6.79548 0
88.3694 -7.75289 0
82.7031 2.36002 0
87.9435 -7.60508 0
89.1123 -4.26386 0
88.4278 -6.89692 0
86.6088 -5.09953 0
85.6741 -0.839938 0
87.5106 -6.99632 0
86.741 -7.39923 0
84.3315 8.15551 0
86.807 -7.41271 0
86.4782 -0.457521 0
85.8057 -7.75623 0
85.2986 -8.45814 0
85.0237 -0.565697 0
84.2366 -8.5952 0
84.7426 -6.31488 0
82.9498 -0.655691 0
83.2451 -8.74431 0
83.3506 -4.84913 0
84.9976 -3.82814 0
83.7918 -7.48922 0
82.7107 -7.83347 0
85.3047 4.39292 0
81.8446 0.530847 0
84.7295 2.93673 0
83.4385 -0.0771594 0
82.1657 -8.49479 0
83.9691 7.72475 0
81.5862 0.383715 0
83.4252 6.5683 0
81.3231 -8.35714 0
83.0265 -1.71109 0
80.6722 -6.09949 0
83.3923 8.79965 0
80.5274 2.01708 0
83.2963 8.72461 0
81.1665 7.26821 0
80.8066 0.410104 0
81.7626 7.64716 0
81.255 -6.35044 0
82.5652 -0.470749 0
80.4904 -8.48376 0
80.5144 -8.25022 0
82.121 8.21238 0
80.2576 7.82382 0
80.1592 0.0433905 0
81.2829 8.08038 0
79.5372 5.0582 0
80.143 2.2775 0
79.5889 -8.42992 0
80.5948 -1.0909 0
79.9185 -8.30469 0
79.1363 8.27246 0
78.9899 -7.70103 0
79.7777 -1.07325 0
79.3879 -3.38702 0
77.758 -7.39473 0
80.7789 -4.0932 0
77.6246 -7.15307 0
79.3178 -0.291279 0
76.726 -6.83195 0
78.9646 2.85498 0
79.5674 0.460345 0
78.7415 6.94749 0
79.0151 0.118983 0
78.5159 8.14974 0
78.2503 7.64558 0
78.7247 0.186367 0
77.5245 6.69135 0
78.5351 0.133884 0
78.1135 -6.39385 0
79.3135 -0.574576 0
79.3229 6.0212 0
77.8154 0.730346 0
77.0895 6.28233 0
76.6189 -6.79163 0
79.4244 -0.227899 0
75.0182 -5.80925 0
77.8301 -0.439807 0
75.8443 -5.71702 0
78.2846 2.54096 0
77.8487 0.121075 0
78.8471 -5.20199 0
77.8492 -0.112592 0
75.1571 -5.38217 0
76.5194 5.66808 0
76.5894 -4.2464 0
77.848 -0.238727 0
75.4827 -4.61063 0
77.6309 3.13077 0
75.5068 1.98416 0
76.0443 4.90161 0
77.5151 -0.980507 0
75.3112 -5.10783 0
77.7731 0.401959 0
75.9223 6.6141 0
77.4513 -2.36865 0
77.8516 -0.0835171 0
74.9956 -4.6094 0
75.668 5.90762 0
77.7576 0.714354 0
75.6652 4.61804 0
75.3777 4.55665 0
77.7647 0.381867 0
74.595 4.0599 0
74.1365 -4.13644 0
77.8076 -0.292753 0
73.8367 -4.13071 0
76.3059 -1.96553 0
77.8326 -0.19823 0
73.2264 -2.81556 0
74.6359 5.04971 0
77.6722 0.616158 0
75.9421 3.23592 0
73.8486 -2.55649 0
77.6947 -0.312242 0
73.1938 -2.32908 0
73.5359 3.7149 0
77.7021 0.262121 0
73.9465 3.49983 0
74.2591 2.8541 0
77.8476 0.0334209 0
73.4121 3.04088 0
74.5764 -1.50574 0
77.6106 -0.536582 0
73.8514 -1.32812 0
72.6541 -0.844678 0
76.862 -0.918653 0
72.7056 -0.715664 0
76.546 0.955972 0
77.7544 0.0808322 0
75.562 2.41928 0
73.1953 2.44881 0
77.5848 0.0587764 0
72.7744 1.54689 0
77.2574 -0.233953 0
77.8258 -0.113057 0
72.705 -0.235426 0
73.2405 -0.092597 0
77.7778 -0.0655992 0
75.5169 0.304862 0
73.4083 0.523033 0
77.8008 -0.0614821 0
76.7497 -5.63138 0
77.8543 -0.430435 0
77.8289 0.134306 0
77.5287 6.85127 0
78.4382 -7.70569 0
81.4961 -0.941005 0
79.9936 0.993693 0
81.0425 8.58333 0
77.7569 0.279785 0
74.0845 4.83129 0
73.595 -2.8244 0
77.7865 -0.203786 0
77.7952 -0.573003 0
77.1887 -3.6528 0
77.8298 0.799204 0
77.8841 0.195847 0
77.7638 2.36396e-05 0
73.2738 2.04463 0
78.9709 0.464248 0
78.1364 1.56897 0
78.4387 -1.37108 0
79.8214 -0.687895 0
85.1109 -1.27274 0
84.7031 -8.44289 0
86.5509 8.06881 0
84.6646 0.469201 0
77.5206 1.65686 0
79.0586 7.96675 0
78.0339 -7.04906 0
78.8859 -2.30777 0
76.6524 -1.45599 0
74.2611 -0.217651 0
75.7099 5.80233 0
77.8246 1.88087 0
77.672 -1.78489 0
74.3621 -4.61404 0
90.8914 -5.42355 0
87.6294 -0.66532 0
87.2272 0.795552 0
91.3135 4.53212 0
77.8241 -0.812826 0
77.8564 -0.042552 0
77.8357 0.148719 0
78.66 0.752672 0
82.5071 0.738504 0
82.1403 4.09642 0
80.6974 -1.98498 0
83.6449 -1.74344 0
81.09 4.88145 0
83.8994 8.28611 0
82.7544 -8.65861 0
81.9691 -1.91653 0
85.849 1.61244 0
86.9194 5.0328 0
85.5153 -2.79236 0
86.6077 -0.0450209 0
89.6274 -0.261623 0
92.0979 -1.37587 0
91.9129 0.576612 0
88.8691 0.0318608 0
89.7107 0.000731892 0
91.277 0.524963 0
91.0526 -0.514154 0
89.8894 0.0489718 0
78.7034 -1.44173 0
78.236 -0.571131 0
78.1337 1.23317 0
78.8652 0.943969 0
77.9996 1.21963 0
77.8473 0.236614 0
77.8465 -0.108129 0
77.9461 -1.12019 0
88.5946 0.965213 0
89.8106 1.91134 0
88.9045 -1.16123 0
89.0768 -0.174599 0
75.6569 -0.957661 0
77.7947 -0.154277 0
77.3089 -0.439218 0
77.7998 -0.369889 0
77.8195 0.206776 0
77.7187 0.965506 0
90.3191 0.946828 0
89.4587 0.148204 0
89.6475 -0.00180066 0
90.0289 -1.03268 0
81.1455 -0.0418783 0
80.4136 -2.81642 0
81.4208 1.80007 0
80.2072 0.447843 0
77.4291 4.02501 0
76.8146 7.28676 0
76.5996 -6.23294 0
77.9316 -3.21142 0
78.462 -2.1017 0
77.2396 -2.22445 0
77.4917 4.62045 0
77.9148 2.21814 0
89.9021 0.0611992 0
89.6658 0.148794 0
89.8197 -0.0557036 0
90.7833 0.0569615 0
79.2409 -5.40486 0
80.295 -5.24503 0
79.9171 4.62627 0
80.356 8.50203 0
78.6508 -3.96659 0
79.8089 -2.3091 0
79.6344 3.1098 0
78.9074 1.52983 0
89.5001 1.13157 0
88.9143 0.137619 0
89.1789 -0.0088485 0
89.0518 -1.02217 0
77.0873 1.00727 0
77.8177 0.0317842 0
89.7179 -0.050171 0
90.3777 -0.322691 0
90.0802 0.226825 0
89.5249 0.0353583 0
78.541 -0.951876 0
78.1107 -1.3257 0
78.7957 1.73463 0
78.0422 0.73522 0
77.8621 -0.145598 0
77.9905 -0.693636 0
77.8746 0.314411 0
77.8397 0.13625 0
73.7226 1.70683 0
76.6771 1.51828 0
86.2555 -3.15691 0
89.5212 -6.37842 0
90.4582 5.8433 0
85.9702 2.28049 0
76.4755 -2.29958 0
74.3494 -2.88726 0
88.1704 0.156529 0
88.4663 0.883406 0
87.3965 0.0768967 0
88.0765 0.853951 0
88.4802 -0.864839 0
88.3138 -0.13972 0
87.8087 -0.717431 0
87.7294 -0.0124917 0
89.3566 -0.208298 0
89.4633 -0.604812 0
89.3079 0.380587 0
89.0519 0.00583617 0
77.817 0.180311 0
77.5477 0.534415 0
76.1783 0.452657 0
73.8233 0.842215 0
77.7057 -0.245314 0
77.8072 -0.170694 0
77.1976 0.27551 0
77.0969 -0.743169 0
91.955 -2.80992 0
88.8465 -1.76994 0
89.8175 2.25263 0
92.092 1.67654 0
77.9159 -0.0646821 0
77.9802 -0.366879 0
77.8544 0.049437 0
78.1218 0.259338 0
88.6988 -0.202722 0
88.7142 -0.529728 0
88.7481 0.352156 0
88.3218 0.114424 0
87.1863 0.172227 0
87.3863 0.54562 0
87.4013 -0.639666 0
87.2891 -0.155007 0
78.2376 -0.895988 0
79.0163 -2.12277 0
78.5132 1.60694 0
78.1999 1.26925 0
78.763 2.86994 0
77.3119 1.84271 0
77.8545 -1.91606 0
78.4181 -2.78048 0
90.2905 -0.562462 0
91.2118 0.24788 0
91.3847 -0.237264 0
90.7136 0.610477 0
77.4953 -1.14062 0
77.5951 -1.35767 0
77.6531 1.07535 0
77.0982 1.2972 0
87.1879 0.57033 0
86.8691 0.170823 0
86.9385 -0.105449 0
87.1178 -0.485134 0
84.4376 4.26311 0
86.376 7.12766 0
85.8709 -8.38737 0
85.4404 -3.34805 0
74.8196 -3.40789 0
77.1666 -3.50092 0
84.0744 -3.05832 0
84.6831 -1.09589 0
83.1165 0.45208 0
86.2909 3.11491 0
74.3796 4.6033 0
76.381 2.72087 0
87.9985 -0.0510538 0
88.1802 -0.547783 0
88.0558 0.364404 0
87.959 0.100492 0
88.0392 -0.372025 0
87.8419 -1.52586 0
88.3848 2.1046 0
87.4249 0.274376 0
82.5183 1.39212 0
80.8726 0.349088 0
81.9312 -0.332476 0
82.544 -3.10481 0
90.0341 0.299141 0
90.3098 0.81656 0
90.4738 -0.891636 0
90.4037 -0.0254811 0
81.5819 -3.82281 0
82.6363 -1.83542 0
81.8891 2.70325 0
84.3225 5.9782 0
86.7287 0.347267 0
86.5975 0.0658194 0
86.7983 -0.104128 0
86.7099 -0.361436 0
87.4094 -0.1904 0
87.5993 -0.00774335 0
87.5681 0.103364 0
87.3718 0.44749 0
79.5254 0.493579 0
79.2985 1.29723 0
79.5344 -1.14501 0
80.3172 -0.314327 0
80.9248 2.81619 0
79.43 1.94333 0
78.821 -2.82545 0
78.049 -2.84756 0
89.6695 -0.497098 0
89.4258 -0.285884 0
89.2614 0.384783 0
90.1663 0.652707 0
79.3642 3.83337 0
79.8802 2.55709 0
78.9558 -0.820409 0
78.8101 -0.29017 0
78.6749 0.263469 0
79.3014 0.887058 0
76.2948 -0.869236 0
77.3146 -1.34014 0
91.3434 -3.70447 0
88.9086 -2.09053 0
88.4093 3.77474 0
91.7282 3.77351 0
77.7608 -0.863615 0
77.8634 -0.139235 0
77.7937 0.201202 0
77.8345 0.838695 0
78.068 0.0878477 0
78.0746 0.620709 0
78.2051 -0.344909 0
78.3291 -0.0212073 0
75.0988 -0.266326 0
72.7217 0.150163 0
84.4345 3.21779 0
88.3547 2.99311 0
87.0854 -2.5214 0
87.6876 -4.98721 0
77.3096 2.05547 0
76.9044 1.14099 0
77.8503 -0.0243723 0
77.5528 -0.0473595 0
79.8207 6.80695 0
77.8805 4.0379 0
79.5398 -4.28438 0
78.4837 -8.06837 0
77.196 0.783593 0
77.6923 0.424128 0
89.3433 0.506581 0
89.7038 1.10678 0
89.3798 -1.01763 0
89.3294 -0.195532 0
86.957 -0.126107 0
87.1988 -0.0844392 0
87.1678 0.072515 0
87.0383 0.42134 0
91.8084 0.490579 0
90.7032 1.42103 0
90.7134 -0.592832 0
91.9499 -0.751086 0