# vtk DataFile Version 3.0
Unstructured Grid for Triangles
ASCII
DATASET UNSTRUCTURED_GRID
POINTS 29612 DOUBLE
-2.72397e-05 1.23686e-06 0
-2.95789e-05 9.5838e-07 0
-2.77865e-05 -3.1235e-07 0
0.0002024 5e-05 0
0.000203975 4.9875e-05 0
0.000205 5e-05 0
0.000203975 -4.9875e-05 0
0.0002024 -5e-05 0
0.000205 -5e-05 0
0.00020295 4.975e-05 0
0.00020295 -4.975e-05 0
0.000201925 4.9625e-05 0
0.000201925 -4.9625e-05 0
-5.29747e-05 -4.79887e-05 0
-5.5e-05 -5e-05 0
-5.24e-05 -5e-05 0
-5.05983e-05 -4.84325e-05 0
-4.98e-05 -5e-05 0
-4.72e-05 -5e-05 0
-4.83864e-05 -4.87761e-05 0
-4.46e-05 -5e-05 0
-4.59e-05 -4.84239e-05 0
-4.29453e-05 -4.24878e-05 0
-4.47486e-05 -4.20717e-05 0
-4.41829e-05 -4.36609e-05 0
-5.12578e-05 -4.62101e-05 0
-4.93077e-05 -4.53594e-05 0
-5.0706e-05 -4.39006e-05 0
-4.19243e-05 -4.77545e-05 0
-4.40307e-05 -4.71837e-05 0
-4.3691e-05 -4.86724e-05 0
-5.16129e-05 -4.20948e-05 0
-4.95355e-05 -4.15432e-05 0
-5.11646e-05 -4.0128e-05 0
-3.94697e-05 -4.81197e-05 0
-4.06302e-05 -4.55143e-05 0
-5.37257e-05 -3.88197e-05 0
-5.31099e-05 -4.07297e-05 0
-5.23982e-05 -3.88328e-05 0
-3.70063e-05 -4.72956e-05 0
-3.68e-05 -5e-05 0
-3.5308e-05 -4.85302e-05 0
-5.072e-05 -3.7867e-05 0
-4.85506e-05 -3.83975e-05 0
-4.90949e-05 -3.59622e-05 0
-3.37127e-05 -4.84331e-05 0
-3.16e-05 -5e-05 0
-3.26495e-05 -4.7415e-05 0
-5.5e-05 -3.5e-05 0
-5.31201e-05 -3.70361e-05 0
-5.28367e-05 -3.46817e-05 0
-3.63898e-05 -4.48809e-05 0
-3.83315e-05 -4.60336e-05 0
-3.26269e-06 -4.15503e-05 0
-5.99662e-06 -4.09556e-05 0
-5.46944e-06 -4.29488e-05 0
-5.29747e-05 4.79887e-05 0
-5.5e-05 5e-05 0
-5.5e-05 4.75e-05 0
-5.5e-05 4.5e-05 0
-5.34834e-05 4.29171e-05 0
-5.26943e-05 4.42611e-05 0
-5.34026e-05 4.60176e-05 0
-5.31099e-05 4.07297e-05 0
-5.11672e-05 4.01178e-05 0
-5.16129e-05 4.20948e-05 0
-5.24e-05 5e-05 0
-5.05983e-05 4.84325e-05 0
-5.31201e-05 3.70361e-05 0
-5.072e-05 3.7867e-05 0
-5.23982e-05 3.88328e-05 0
-4.8341e-05 4.69132e-05 0
-4.83679e-05 4.87539e-05 0
-5.28367e-05 3.46817e-05 0
-5.5e-05 3.25e-05 0
-5.25657e-05 3.28474e-05 0
-4.98e-05 5e-05 0
-5.30382e-05 3.125e-05 0
-4.19243e-05 4.77545e-05 0
-4.40015e-05 4.7335e-05 0
-4.25917e-05 4.63678e-05 0
-4.35138e-05 2.62661e-05 0
-4.14982e-05 2.74462e-05 0
-4.35654e-05 2.85217e-05 0
-4.59e-05 4.84239e-05 0
-4.36852e-05 4.87027e-05 0
-4.46e-05 5e-05 0
-5.33308e-05 2.92503e-05 0
-5.5e-05 2.75e-05 0
-5.23377e-05 2.76953e-05 0
-4.25282e-05 4.46352e-05 0
-4.09368e-05 4.35728e-05 0
-4.06302e-05 4.55143e-05 0
0.0002009 4.95e-05 0
0.0001998 5e-05 0
0.000199875 4.9375e-05 0
0.00019885 4.925e-05 0
0.0001972 5e-05 0
0.000197825 4.9125e-05 0
0.0001968 4.9e-05 0
0.000195775 4.8875e-05 0
0.0001946 5e-05 0
0.00019475 4.875e-05 0
0.000193725 4.8625e-05 0
0.000192 5e-05 0
0.0001927 4.85e-05 0
0.000191675 4.8375e-05 0
0.00019065 4.825e-05 0
0.0001894 5e-05 0
0.000189625 4.8125e-05 0
0.0001886 4.8e-05 0
0.0001868 5e-05 0
0.000187575 4.7875e-05 0
0.00018655 4.775e-05 0
0.000185515 4.8575e-05 0
0.0001842 5e-05 0
0.0001845 4.75e-05 0
0.000185525 4.7625e-05 0
0.000182564 4.829e-05 0
0.0001816 5e-05 0
0.00018245 4.725e-05 0
0.000183475 4.7375e-05 0
0.000181425 4.7125e-05 0
0.000180295 4.82657e-05 0
0.000179 5e-05 0
0.000179375 4.6875e-05 0
0.0001804 4.7e-05 0
0.000178168 4.80619e-05 0
0.0001764 5e-05 0
0.000177325 4.6625e-05 0
0.00017835 4.675e-05 0
0.000176428 4.76631e-05 0
0.0001763 4.65e-05 0
0.0001738 5e-05 0
0.0001751 4.84164e-05 0
0.000175275 4.6375e-05 0
0.000174025 4.75632e-05 0
0.0001712 5e-05 0
0.000172615 4.78449e-05 0
0.0001722 4.6e-05 0
0.000173225 4.6125e-05 0
0.00017015 4.575e-05 0
0.000171243 4.7381e-05 0
0.000169554 4.79999e-05 0
0.0001686 5e-05 0
0.000167507 4.79751e-05 0
0.000168498 4.64861e-05 0
0.000166 5e-05 0
0.00016558 4.71459e-05 0
0.000167135 4.62887e-05 0
0.0001681 4.55e-05 0
0.00016605 4.525e-05 0
0.000167075 4.5375e-05 0
0.000164059 4.61599e-05 0
0.00016394 4.79552e-05 0
0.000162881 4.6615e-05 0
0.000162975 4.4875e-05 0
0.000165025 4.5125e-05 0
0.000164 4.5e-05 0
0.000161754 4.58641e-05 0
0.000161722 4.78101e-05 0
0.000159956 4.58294e-05 0
0.000160925 4.4625e-05 0
0.00016195 4.475e-05 0
0.000157667 4.60322e-05 0
0.000158875 4.4375e-05 0
0.000159194 4.80155e-05 0
0.0001599 4.45e-05 0
0.00015785 4.425e-05 0
0.000155808 4.56757e-05 0
0.000155647 4.76701e-05 0
0.000154059 4.66642e-05 0
0.000153756 4.50083e-05 0
0.000154839 4.50446e-05 0
0.000156825 4.4125e-05 0
0.000151954 4.80508e-05 0
0.000154052 4.8477e-05 0
0.000153 5e-05 0
0.000154775 4.3875e-05 0
0.000152142 4.56625e-05 0
0.000152821 4.45753e-05 0
0.00015375 4.375e-05 0
0.0001504 5e-05 0
0.000149644 4.85168e-05 0
0.000151787 4.43178e-05 0
0.000152725 4.3625e-05 0
0.000150675 4.3375e-05 0
0.0001517 4.35e-05 0
0.000148119 4.50887e-05 0
0.000148072 4.75757e-05 0
0.000146584 4.63516e-05 0
0.000150008 4.6396e-05 0
0.000149351 4.4543e-05 0
0.00015061 4.46252e-05 0
0.0001476 4.3e-05 0
0.000148625 4.3125e-05 0
0.000146492 4.82975e-05 0
0.000144888 4.73562e-05 0
0.000146676 4.44259e-05 0
0.000145255 4.53656e-05 0
0.000145652 4.38669e-05 0
0.000141401 4.79821e-05 0
0.0001426 5e-05 0
0.00014 5e-05 0
0.000144374 4.38862e-05 0
0.00014555 4.275e-05 0
0.0001435 4.25e-05 0
0.000144525 4.2625e-05 0
0.000142746 4.38121e-05 0
0.000141288 4.43191e-05 0
0.000141707 4.32778e-05 0
0.00013921 4.38992e-05 0
0.000140355 4.5932e-05 0
0.000138302 4.5922e-05 0
0.000142912 4.58869e-05 0
0.000140592 4.30037e-05 0
0.00014145 4.225e-05 0
0.000136458 4.5869e-05 0
0.000137106 4.4063e-05 0
0.0001394 4.2e-05 0
0.000138259 4.28915e-05 0
0.000137484 4.77094e-05 0
0.000139166 4.78902e-05 0
0.00013586 4.78984e-05 0
0.000133449 4.78649e-05 0
0.000134717 4.61848e-05 0
0.000137256 4.25134e-05 0
0.000135323 4.24541e-05 0
0.000136325 4.1625e-05 0
0.000136122 4.2876e-05 0
0.000131206 4.47284e-05 0
0.000133168 4.56738e-05 0
0.000131773 4.65243e-05 0
0.000134756 4.40343e-05 0
0.000132747 4.36463e-05 0
0.000133483 4.26786e-05 0
0.000131081 4.1867e-05 0
0.000132382 4.22815e-05 0
0.000131507 4.3122e-05 0
0.000131059 4.80123e-05 0
0.00013325 4.125e-05 0
0.00012915 4.075e-05 0
0.00012982 4.18199e-05 0
0.000128915 4.26216e-05 0
0.000126366 4.47574e-05 0
0.000127331 4.30908e-05 0
0.000128781 4.44872e-05 0
0.000125336 4.28376e-05 0
0.000130218 4.31077e-05 0
0.000127894 4.16344e-05 0
0.000124774 4.69608e-05 0
0.000127668 4.64148e-05 0
0.000126591 4.8331e-05 0
0.000126722 4.18415e-05 0
0.000125768 4.11931e-05 0
0.000124326 4.13546e-05 0
0.00012505 4.025e-05 0
0.000122408 4.50118e-05 0
0.000120276 4.47432e-05 0
0.00012139 4.32235e-05 0
0.000124336 4.44132e-05 0
0.000123056 4.27595e-05 0
0.000122977 4.09049e-05 0
0.00012185 4.69217e-05 0
0.000122676 4.85947e-05 0
0.000120525 4.86094e-05 0
0.000121479 4.13153e-05 0
0.000119547 4.24221e-05 0
0.000120249 4.07448e-05 0
0.000119925 3.9625e-05 0
0.000119346 4.06114e-05 0
0.000117479 4.47279e-05 0
0.000114726 4.45259e-05 0
0.00011571 4.27814e-05 0
0.000119443 4.66611e-05 0
0.000117447 4.21596e-05 0
0.000118421 4.0752e-05 0
0.000117409 4.04437e-05 0
0.000116775 4.70073e-05 0
0.0001179 4.855e-05 0
0.000115473 4.84802e-05 0
0.00011685 3.925e-05 0
0.000117875 3.9375e-05 0
0.000115454 4.00551e-05 0
0.0001148 3.9e-05 0
0.000115825 3.9125e-05 0
0.000111704 4.23398e-05 0
0.000113786 4.26731e-05 0
0.000112589 4.43871e-05 0
0.000113234 4.06671e-05 0
0.000114754 4.13371e-05 0
0.0001106 4.42326e-05 0
0.000109703 4.24261e-05 0
0.00011275 3.875e-05 0
0.000113775 3.8875e-05 0
0.000110211 4.80875e-05 0
0.000108244 4.71951e-05 0
0.000109312 4.58413e-05 0
0.000111755 3.99116e-05 0
0.00010944 3.92972e-05 0
0.000110415 4.05876e-05 0
0.000108839 4.07536e-05 0
0.000106472 4.76905e-05 0
0.000107274 4.57868e-05 0
0.000108011 3.92415e-05 0
0.000106885 4.04365e-05 0
0.000106625 3.88708e-05 0
0.000105286 4.19254e-05 0
0.000105055 3.95469e-05 0
0.000104215 4.39764e-05 0
0.000106346 4.40629e-05 0
0.000100945 4.51249e-05 0
0.000102825 4.5614e-05 0
0.000101189 4.68452e-05 0
0.000107625 3.8125e-05 0
0.000105575 3.7875e-05 0
0.0001066 3.8e-05 0
0.000103352 4.76905e-05 0
0.000101803 4.8465e-05 0
0.000103685 3.89398e-05 0
0.00010245 3.8825e-05 0
0.000103525 3.7625e-05 0
0.000101092 3.99779e-05 0
0.000101267 3.82619e-05 0
0.000101382 4.2025e-05 0
0.000103187 4.05286e-05 0
0.000103359 4.24605e-05 0
9.87383e-05 4.5447e-05 0
9.99411e-05 4.35161e-05 0
9.744e-05 4.33145e-05 0
0.00010045 3.725e-05 0
0.000101475 3.7375e-05 0
9.70845e-05 4.65215e-05 0
9.52614e-05 4.67664e-05 0
9.61768e-05 4.49944e-05 0
9.9729e-05 3.87704e-05 0
9.78901e-05 3.9598e-05 0
9.85823e-05 3.81492e-05 0
9.62289e-05 3.93709e-05 0
9.74259e-05 3.81279e-05 0
9.7375e-05 3.6875e-05 0
9.63045e-05 3.76631e-05 0
9.58e-05 5e-05 0
9.32e-05 5e-05 0
9.47542e-05 4.8457e-05 0
9.49675e-05 3.85246e-05 0
9.36214e-05 3.89472e-05 0
9.40006e-05 3.74906e-05 0
9.66411e-05 4.12573e-05 0
9.44241e-05 4.07079e-05 0
9.03569e-05 4.24993e-05 0
9.21701e-05 4.02409e-05 0
9.27439e-05 4.27744e-05 0
8.89795e-05 4.09067e-05 0
9.03071e-05 4.0248e-05 0
9.25447e-05 3.77721e-05 0
9.3275e-05 3.6375e-05 0
9.07708e-05 3.87127e-05 0
9.11303e-05 3.70839e-05 0
9.11933e-05 4.55145e-05 0
9.30678e-05 4.73279e-05 0
9.11886e-05 4.82603e-05 0
8.87724e-05 3.88076e-05 0
8.99595e-05 3.75116e-05 0
9.02e-05 3.6e-05 0
8.89241e-05 3.6954e-05 0
8.36977e-05 4.59472e-05 0
8.36223e-05 4.83578e-05 0
8.20467e-05 4.74142e-05 0
8.71227e-05 4.03557e-05 0
8.61e-05 3.55e-05 0
8.68368e-05 3.65714e-05 0
8.5484e-05 3.6588e-05 0
8.47735e-05 4.02845e-05 0
8.23121e-05 4.21599e-05 0
8.26582e-05 3.98147e-05 0
8.46943e-05 4.2454e-05 0
8.38832e-05 3.78613e-05 0
8.35569e-05 3.63808e-05 0
8.44098e-05 3.6291e-05 0
8.5075e-05 3.5375e-05 0
8.51465e-05 4.77163e-05 0
8.3025e-05 3.5125e-05 0
8.22824e-05 3.68659e-05 0
8.1446e-05 3.57362e-05 0
8.05884e-05 3.71794e-05 0
7.53471e-05 4.77524e-05 0
7.38313e-05 4.73927e-05 0
7.39102e-05 4.61526e-05 0
7.9826e-05 3.58588e-05 0
7.88607e-05 3.76287e-05 0
7.81733e-05 3.57987e-05 0
8.16783e-05 3.84471e-05 0
8.07975e-05 4.04095e-05 0
7.52138e-05 4.04775e-05 0
7.67682e-05 4.17043e-05 0
7.49617e-05 4.21803e-05 0
7.52903e-05 3.84008e-05 0
7.38293e-05 3.93136e-05 0
[...]
CELL_DATA 58684
VECTORS velocity DOUBLE
74.3031 0.337218 0
87.5008 0.000158911 0
87.4751 -2.49574e-05 0
87.5054 -0.000393205 0
87.4785 1.58043e-05 0
87.5105 -0.00282912 0
87.4844 0.00336001 0
77.8847 -0.00121074 0
77.902 -0.0247016 0
78.0201 -0.0023377 0
78.1409 -0.00467545 0
78.2084 -0.410009 0
77.941 -0.109709 0
78.2916 -0.135231 0
77.9183 -0.184917 0
78.4982 -0.170037 0
77.8855 -0.112918 0
78.8711 -0.157691 0
77.9741 -0.318015 0
79.3927 -0.111033 0
77.8976 -0.116166 0
78.8385 -0.370226 0
85.5231 -2.16784 0
77.864 0.0124722 0
77.8695 0.0514381 0
77.8632 0.0249818 0
77.9127 0.142575 0
77.9016 0.02357 0
77.9059 0.188753 0
78.0167 0.0491042 0
77.895 0.145571 0
77.9686 0.0334865 0
77.8584 0.143965 0
78.3658 0.162642 0
78.0733 1.13465 0
78.2129 0.0689254 0
77.9064 0.17984 0
78.4474 0.354656 0
87.5142 -0.00101199 0
87.5189 0.000109974 0
87.5268 -0.00474937 0
87.527 -0.00358705 0
87.5344 0.000436256 0
87.5424 -0.0039279 0
87.5437 -0.00715287 0
87.5451 -0.00428167 0
87.5514 -4.07056e-05 0
87.5575 -0.0068327 0
87.5571 -0.00587606 0
87.563 -4.45157e-05 0
87.5712 -0.00733932 0
87.5714 -0.00913598 0
87.5725 -0.0056666 0
87.5778 -0.000571609 0
87.5831 -0.00886358 0
87.5825 -0.00751275 0
87.5877 -0.000850113 0
87.596 -0.011146 0
87.5959 -0.0116992 0
87.5972 -0.00648743 0
87.6041 -0.000370784 0
87.607 -0.01509 0
87.6111 -0.00978335 0
87.6198 -0.00135867 0
87.6217 -0.0171946 0
87.6219 -0.0155093 0
87.6277 -0.0117224 0
87.6324 -0.00119398 0
87.6334 -0.0179695 0
87.6393 -0.0126029 0
87.6443 -0.00132182 0
87.6465 -0.0202433 0
87.6513 -0.0153691 0
87.6575 -0.0237922 0
87.6607 -0.000958764 0
87.6645 -0.0179401 0
87.6679 -0.0112616 0
87.6753 -0.0019907 0
87.6787 -0.0255172 0
87.6935 -0.0201944 0
87.6815 -0.0208418 0
87.6935 -0.00211671 0
87.6993 -0.0132983 0
87.6957 -0.025677 0
87.7169 -0.0166946 0
87.7131 -0.0222957 0
87.7137 -0.0299169 0
87.7226 -0.0367706 0
87.7359 -0.0234114 0
87.7491 -0.0330288 0
87.7304 -0.0286933 0
87.7438 -0.0411111 0
87.7546 -0.0316531 0
87.7533 -0.0309792 0
87.7612 -0.043241 0
87.785 -0.0395436 0
87.7681 -0.0340644 0
87.7783 -0.046054 0
87.7931 -0.0522315 0
87.7933 -0.038492 0
87.8137 -0.0479226 0
87.7981 -0.0427639 0
87.8134 -0.0148734 0
87.8201 -0.0530507 0
87.8349 -0.0497652 0
87.8291 -0.0549664 0
87.8308 -0.0140796 0
87.8414 -0.0583979 0
87.8551 -0.0651836 0
87.8621 -0.0368949 0
87.8606 -0.0392361 0
87.8499 -0.0532692 0
87.8793 -0.069552 0
87.8722 -0.0287167 0
87.9023 -0.0630888 0
87.8876 -0.0408398 0
87.91 -0.00345908 0
87.9113 -0.0715975 0
87.9235 -0.0825302 0
87.9482 -0.0725098 0
87.959 -0.0555343 0
87.92 -0.0431412 0
87.9561 -0.082907 0
87.9786 -0.0562389 0
87.9799 -0.0870095 0
87.9519 -0.0321134 0
87.9895 -0.0787271 0
87.9915 -0.0301975 0
88.0011 -0.0907232 0
88.0241 -0.104062 0
88.0425 -0.0620801 0
88.0423 -0.0873752 0
88.0118 -0.0410039 0
88.0758 -0.111886 0
88.0208 -0.0327422 0
88.0599 -0.1116 0
88.1128 -0.12465 0
88.1176 -0.0880303 0
88.1305 -0.107237 0
88.0998 -0.104098 0
88.1236 -0.114337 0
88.0829 -0.0488016 0
88.1596 -0.130944 0
88.1822 -0.144175 0
88.1985 -0.0944483 0
88.1312 -0.0707273 0
88.1738 -0.123592 0
88.1921 -0.145033 0
88.1462 -0.0294307 0
88.2484 -0.155307 0
88.261 -0.172003 0
88.2831 -0.106185 0
88.2089 -0.0920068 0
88.2681 -0.145239 0
88.287 -0.171388 0
88.2214 -0.0313595 0
88.3044 -0.197818 0
88.3454 -0.21157 0
88.3461 -0.148874 0
88.3489 -0.172641 0
88.3846 -0.157271 0
88.3779 -0.218956 0
88.358 -0.0581456 0
88.3849 -0.206382 0
88.4443 -0.210422 0
88.4049 -0.0682543 0
88.4998 -0.248327 0
88.519 -0.229381 0
88.4959 -0.146541 0
88.5405 -0.111914 0
88.5053 -0.254768 0
88.538 -0.280036 0
88.5139 -0.0572905 0
88.595 -0.28363 0
88.6352 -0.290592 0
88.5616 -0.208757 0
88.6083 -0.132232 0
88.6397 -0.172579 0
88.6653 -0.331871 0
88.6748 -0.113084 0
88.716 -0.310121 0
88.741 -0.304311 0
88.7649 -0.355036 0
88.6985 -0.00573289 0
88.8488 -0.353768 0
88.7441 -0.273909 0
88.8422 -0.247862 0
88.9022 -0.289158 0
88.8932 -0.392309 0
88.9387 -0.395936 0
88.8009 -0.0895613 0
88.9683 -0.384606 0
88.9952 -0.442708 0
89.0052 -0.425986 0
89.0592 -0.0986797 0
88.9839 -0.338237 0
89.1412 -0.490266 0
89.1704 -0.371042 0
89.0987 -0.312833 0
89.1892 -0.517024 0
89.1789 -0.511487 0
89.0523 -0.0888849 0
89.2659 -0.56735 0
89.2975 -0.533614 0
89.428 -0.105033 0
89.3819 -0.584808 0
89.2428 -0.410577 0
89.4568 -0.374435 0
89.5162 -0.482054 0
89.4262 -0.530605 0
89.4535 -0.634655 0
89.4783 -0.22873 0
89.602 -0.613327 0
89.567 -0.704873 0
89.7329 -0.716751 0
89.6637 -0.0122421 0
89.6829 -0.589626 0
89.743 -0.741141 0
89.5747 -0.182784 0
89.8 -0.779424 0
89.8694 -0.450789 0
89.843 -0.814821 0
90.0038 -0.253122 0
89.9874 -0.704433 0
89.9607 -0.828 0
89.8773 -0.127205 0
90.0903 -0.855261 0
90.2492 -0.834561 0
90.1028 -0.70942 0
90.1357 -0.429362 0
90.2828 -0.957959 0
90.2664 -0.376792 0
90.4003 -0.0646206 0
90.2237 -0.755247 0
90.3865 -0.949554 0
90.4699 -1.01926 0
90.4663 -0.320737 0
90.5953 -0.881505 0
90.7411 -0.966589 0
90.5253 -0.10764 0
90.8751 -0.941388 0
90.8004 -1.04988 0
90.6601 -0.776714 0
90.698 -0.374979 0
90.8064 -0.439029 0
90.941 -1.05675 0
90.8324 -0.00747751 0
91.042 -1.12718 0
91.1673 -1.07121 0
91.1268 -1.12691 0
91.0609 -0.245386 0
91.2198 -0.919045 0
91.4561 -0.934486 0
91.013 -0.00559708 0
91.5465 -1.1088 0
91.7089 -0.943512 0
91.3689 -0.682445 0
91.1821 -0.281465 0
91.7088 -1.06617 0
91.3416 -0.350051 0
91.1159 -0.0164212 0
91.6291 -0.717508 0
91.9568 -0.971549 0
92.1149 -0.907918 0
91.291 -0.0751288 0
92.0542 -0.619007 0
92.197 -0.813508 0
91.1334 0.030959 0
92.3302 -0.802611 0
92.5095 -0.673404 0
92.1282 -0.236724 0
90.8622 0.00895705 0
92.6575 -0.450466 0
91.783 0.19505 0
92.0097 0.30064 0
92.5278 -0.2974 0
92.3037 -0.0343406 0
92.9727 -0.06265 0
90.9746 0.370509 0
92.9595 -0.165897 0
92.5005 0.409684 0
93.1457 0.47628 0
90.897 0.107144 0
93.0896 1.18096 0
92.8565 1.41324 0
89.4719 0.198037 0
93.3174 0.869437 0
93.2084 1.35152 0
90.8435 1.47326 0
90.6088 0.702421 0
92.1505 1.1059 0
93.0992 1.88687 0
89.7267 0.33026 0
92.5943 2.77919 0
93.2758 2.12268 0
93.2874 2.35071 0
88.9368 1.41357 0
91.6085 2.91258 0
92.6421 3.16688 0
88.924 0.231595 0
92.454 3.66958 0
92.101 3.55404 0
91.115 5.18371 0
86.5903 0.397149 0
92.2612 4.87778 0
90.2627 3.5202 0
88.3813 1.56478 0
87.9782 2.98545 0
92.0222 5.38541 0
90.8748 5.84006 0
87.0342 0.608497 0
90.9462 6.6661 0
87.488 0.0011577 0
87.4924 -0.00014453 0
87.4993 0.00400531 0
87.4994 0.00340016 0
87.5062 -0.000445561 0
87.5138 0.00375634 0
87.5149 0.00649013 0
87.5166 0.00356855 0
87.5222 6.86866e-05 0
87.5279 0.00655497 0
87.5275 0.00505006 0
87.533 8.24042e-06 0
87.5406 0.00706346 0
87.5407 0.0087884 0
87.5416 0.00546557 0
87.5468 0.000541025 0
87.552 0.00883084 0
87.5514 0.00748814 0
87.5566 0.000843163 0
87.5648 0.0107711 0
87.5647 0.0114472 0
87.574 0.0152831 0
87.566 0.00630257 0
87.5787 0.00895283 0
87.5883 0.0146025 0
87.5797 0.00986766 0
87.5909 0.0153825 0
87.5966 0.0117033 0
87.6026 0.0184489 0
87.5938 0.00980397 0
87.6082 0.0128518 0
87.6156 0.0207794 0
87.6075 0.0101603 0
87.6271 0.0241528 0
87.6283 0.0235304 0
87.6323 0.0171576 0
87.622 0.0120577 0
87.634 0.018276 0
87.6461 0.0177833 0
87.6374 0.0115077 0
87.6578 0.030866 0
87.6543 0.0123441 0
87.664 0.0205035 0
87.6532 0.0156372 0
87.6664 0.0260132 0
87.6849 0.0301697 0
87.6877 0.0169956 0
87.6798 0.0275032 0
87.6978 0.0319465 0
87.6987 0.0362975 0
87.7141 0.0186134 0
87.7074 0.0235329 0
87.7205 0.0331592 0
87.7327 0.0460939 0
87.7331 0.0225144 0
87.7412 0.0362668 0
87.7491 0.0483623 0
87.7531 0.0274949 0
87.7394 0.0341205 0
87.7656 0.0529572 0
87.7658 0.0515406 0
87.7683 0.0326416 0
87.7769 0.0234443 0
87.7861 0.0477134 0
87.7411 0.0141286 0
87.8017 0.0552757 0
87.828 0.066358 0
87.812 0.055761 0
87.7977 0.0330023 0
87.8363 0.0668679 0
87.8417 0.0591344 0
87.8473 0.0289848 0
87.8242 0.0541907 0
87.8575 0.0621451 0
87.8709 0.0710236 0
87.8263 0.0168133 0
87.8584 0.0511157 0
87.8991 0.082641 0
87.8645 0.041789 0
87.9073 0.0728278 0
87.9303 0.0865754 0
87.9057 0.0633777 0
87.9158 0.0262969 0
87.936 0.0761642 0
87.9523 0.0882318 0
87.9251 0.0216261 0
87.9712 0.096796 0
87.9377 0.0706575 0
87.9855 0.080435 0
87.9502 0.0559063 0
87.9973 0.104108 0
88.0442 0.124843 0
87.9967 0.0322924 0
88.0029 0.0851893 0
88.0657 0.131951 0
88.0395 0.0949266 0
87.9887 0.039982 0
88.0771 0.124168 0
88.0929 0.129552 0
88.0448 0.0321735 0
88.0837 0.057691 0
88.1152 0.113813 0
88.1345 0.150006 0
88.0662 0.0792819 0
88.1579 0.145243 0
88.1743 0.155275 0
88.1592 0.0535619 0
88.1487 0.0958664 0
88.2125 0.172562 0
88.2028 0.146459 0
88.1103 0.0474435 0
88.2245 0.164747 0
88.2644 0.17706 0
88.2283 0.0702037 0
88.2346 0.150734 0
88.3142 0.209398 0
88.296 0.160505 0
88.1822 0.0513195 0
88.3325 0.196683 0
88.3873 0.236952 0
88.2728 0.0682866 0
88.3694 0.188887 0
88.3393 0.0886516 0
88.4026 0.196796 0
88.323 0.111553 0
88.4365 0.250786 0
88.481 0.250735 0
88.3815 0.0685104 0
88.4704 0.244136 0
88.5361 0.281574 0
88.4743 0.0728325 0
88.4416 0.205412 0
88.5196 0.239648 0
88.5744 0.284863 0
88.4541 0.0429916 0
88.5794 0.259601 0
88.6689 0.335736 0
88.6432 0.281154 0
88.5724 0.0857566 0
88.7047 0.292511 0
88.5352 0.109561 0
88.579 0.248213 0
88.7014 0.32475 0
88.7953 0.367931 0
88.8012 0.376155 0
88.5471 0.00779475 0
88.8873 0.427549 0
88.8953 0.416853 0
88.9075 0.366982 0
88.8398 0.181594 0
88.931 0.197847 0
88.9267 0.411257 0
88.7128 0.112367 0
89.0333 0.464474 0
89.0217 0.454495 0
89.0231 0.408515 0
88.9129 0.118285 0
89.0949 0.455458 0
89.2094 0.566102 0
89.0617 0.212406 0
89.0191 0.22663 0
89.1629 0.457463 0
89.3167 0.589767 0
88.9472 0.140879 0
89.3521 0.622525 0
89.3841 0.607073 0
89.1945 0.119648 0
89.5093 0.693105 0
89.5384 0.666306 0
89.5918 0.57437 0
89.3816 0.254146 0
89.3582 0.287829 0
89.5188 0.643419 0
89.27 0.186672 0
89.6719 0.766225 0
89.7182 0.724901 0
89.711 0.667865 0
89.4568 0.102165 0
89.8736 0.788068 0
89.8875 0.8051 0
89.7334 0.453902 0
89.9687 0.634493 0
89.745 0.368635 0
89.9358 0.772859 0
89.6412 0.234607 0
90.0826 0.900452 0
90.1035 0.871872 0
89.6708 0.185101 0
90.1646 0.802558 0
90.3358 0.926645 0
90.2539 0.903629 0
90.1302 0.211401 0
90.5314 0.970607 0
90.5729 1.03462 0
90.0989 0.627341 0
90.4628 0.767841 0
90.1486 0.382718 0
90.755 1.08992 0
90.3 0.11838 0
90.8137 1.06031 0
90.8053 1.00573 0
90.1322 0.0941382 0
90.736 0.909755 0
91.111 1.07748 0
91.1986 1.08719 0
90.6701 0.272617 0
91.2669 1.0618 0
91.314 1.13134 0
90.6635 0.688813 0
91.314 0.748392 0
90.8149 0.265436 0
91.4733 1.13051 0
90.833 0.0990335 0
91.6124 1.05656 0
91.6976 1.04162 0
90.6751 0.0690237 0
91.5184 0.861208 0
91.975 0.973184 0
92.132 0.91081 0
91.0763 0.174271 0
91.9708 0.852656 0
92.2642 0.862523 0
91.6072 0.734885 0
92.048 0.428432 0
91.146 0.109643 0
92.0373 0.77158 0
91.1468 0.040168 0
92.503 0.757895 0
92.5861 0.611959 0
91.0559 0.0380416 0
92.288 0.300688 0
92.7293 0.330931 0
92.9131 0.196929 0
91.1096 -0.0977712 0
92.9992 -0.00476716 0
93.0423 -0.141099 0
91.2474 -0.266331 0
93.0561 -0.171163 0
92.2506 -0.628199 0
91.5431 -0.0894789 0
91.3569 0.0025411 0
93.1867 -0.461552 0
92.9421 -0.860015 0
93.37 -1.03402 0
90.9986 -0.00520204 0
92.6439 -1.31247 0
93.3632 -1.76991 0
90.9425 -0.122776 0
92.4788 -1.28085 0
93.334 -2.31069 0
91.909 -1.75107 0
90.9039 -0.655513 0
93.1381 -2.66161 0
92.9965 -2.95631 0
91.8816 -1.1038 0
91.2944 -3.13153 0
89.2443 -2.59146 0
92.6332 -2.99735 0
89.6838 -0.404139 0
92.6127 -3.94904 0
90.0098 7.27084 0
90.7497 6.49438 0
85.2962 1.92407 0
89.9024 7.22912 0
87.6463 6.62169 0
89.2377 7.86428 0
85.8998 0.754921 0
88.249 8.07079 0
87.0651 7.94713 0
84.6243 0.962123 0
87.141 8.47311 0
92.5193 -4.37024 0
89.9337 -0.251424 0
92.2492 -4.71715 0
90.9989 -5.12256 0
90.4452 -4.40938 0
89.0188 -0.267386 0
91.2406 -5.71144 0
85.8221 7.74495 0
90.5801 -6.99342 0
88.7575 -1.3963 0
90.254 -6.76036 0
89.3813 -7.72876 0
83.4485 2.36642 0
88.9405 -7.58646 0
90.1752 -4.22355 0
89.4358 -6.871 0
87.5587 -5.08842 0
86.6178 -0.836263 0
88.4892 -6.98198 0
87.6872 -7.39493 0
85.194 8.17295 0
87.7609 -7.40566 0
87.4654 -0.45316 0
86.7192 -7.76269 0
86.2033 -8.4693 0
85.9236 -0.562523 0
85.1025 -8.61693 0
85.6113 -6.32194 0
83.7121 -0.651767 0
84.0819 -8.77054 0
84.1381 -4.86468 0
85.8807 -3.82658 0
84.625 -7.50745 0
83.5043 -7.86172 0
86.1986 4.38796 0
82.5197 0.52861 0
85.5991 2.93506 0
84.2302 -0.0729922 0
82.9582 -8.5287 0
84.8126 7.74146 0
82.241 0.384563 0
84.2297 6.58815 0
82.0846 -8.3939 0
83.7924 -1.71611 0
81.3537 -6.12908 0
84.2341 8.8253 0
81.1028 2.02682 0
84.1316 8.75095 0
81.8769 7.30204 0
81.3937 0.413622 0
82.524 7.67536 0
81.9706 -6.37466 0
83.2922 -0.474665 0
81.2234 -8.52272 0
81.2392 -8.29044 0
82.9024 8.24335 0
80.9569 7.86144 0
80.684 0.0404056 0
82.0307 8.11446 0
80.1259 5.08659 0
80.6911 2.29027 0
80.2932 -8.47207 0
81.1705 -1.10019 0
80.6284 -8.34722 0
79.8292 8.31486 0
79.6585 -7.7411 0
80.2774 -1.07881 0
79.9124 -3.40176 0
78.3878 -7.43774 0
81.4143 -4.11097 0
78.2441 -7.19275 0
79.7558 -0.289555 0
77.3239 -6.87297 0
79.436 2.86709 0
80.0387 0.461344 0
79.3883 6.98147 0
79.4004 0.115687 0
79.1927 8.19196 0
78.8984 7.68966 0
79.07 0.184758 0
78.1236 6.73023 0
78.8346 0.13338 0
78.7062 -6.42927 0
79.7548 -0.575648 0
79.9366 6.05109 0
77.949 0.739256 0
77.6736 6.32048 0
77.2054 -6.83413 0
79.8687 -0.231212 0
75.5668 -5.843 0
77.9132 -0.441796 0
76.3841 -5.75045 0
78.6855 2.55184 0
77.86 0.120327 0
79.4201 -5.23377 0
77.8627 -0.113237 0
75.6828 -5.41398 0
77.072 5.70301 0
77.0712 -4.27433 0
77.89 -0.244982 0
75.976 -4.63689 0
78.0546 3.1459 0
75.8979 1.99815 0
76.5619 4.92997 0
77.7026 -0.987035 0
75.8283 -5.13988 0
77.8417 0.402886 0
76.5018 6.653 0
77.8025 -2.38132 0
77.8613 -0.0847022 0
75.4897 -4.63517 0
76.2243 5.94476 0
77.8778 0.718213 0
76.1562 4.64592 0
75.8841 4.58625 0
77.8366 0.380773 0
75.0808 4.08282 0
74.6378 -4.16549 0
77.8615 -0.296286 0
74.3358 -4.15711 0
76.6674 -1.9826 0
77.8678 -0.202253 0
73.7049 -2.83324 0
75.1501 5.08044 0
77.8077 0.622856 0
76.3622 3.25431 0
74.3088 -2.574 0
77.7861 -0.31167 0
73.6654 -2.34452 0
74.0299 3.7387 0
77.7973 0.266764 0
74.4256 3.52137 0
74.719 2.87346 0
77.8608 0.03562 0
73.8917 3.06032 0
74.9889 -1.51492 0
77.7467 -0.542819 0
74.2874 -1.33456 0
73.1228 -0.850422 0
77.1274 -0.926916 0
73.1719 -0.720038 0
76.842 0.960783 0
77.8148 0.0768165 0
75.9747 2.43985 0
73.67 2.46494 0
77.7024 0.0595555 0
73.2461 1.5568 0
77.4487 -0.236556 0
77.8502 -0.111796 0
73.17 -0.236958 0
73.6894 -0.0930986 0
77.833 -0.0662111 0
75.8747 0.308586 0
73.855 0.528036 0
77.8404 -0.0623568 0
77.2829 -5.66504 0
77.9493 -0.433502 0
77.8532 0.132229 0
78.1416 6.89259 0
79.0973 -7.74703 0
82.1474 -0.946404 0
80.515 0.997243 0
81.7973 8.62161 0
77.8169 0.279867 0
74.5986 4.86134 0
74.0637 -2.84164 0
77.8186 -0.200543 0
77.904 -0.57301 0
77.6413 -3.67543 0
77.9803 0.802329 0
77.9176 0.201283 0
77.8278 -0.000783523 0
73.7373 2.0561 0
79.3602 0.466847 0
78.4392 1.57824 0
78.7698 -1.37421 0
80.3236 -0.691843 0
86.0126 -1.26633 0
85.5838 -8.46061 0
87.4952 8.06932 0
85.5389 0.46795 0
77.7986 1.66659 0
79.7436 8.00912 0
78.6525 -7.09184 0
79.3228 -2.31713 0
76.9498 -1.46086 0
74.677 -0.223203 0
76.2581 5.83884 0
78.1222 1.89505 0
77.9582 -1.79128 0
74.8641 -4.64053 0
91.9926 -5.35821 0
88.6947 -0.658911 0
88.261 0.787968 0
92.4455 4.45232 0
77.9756 -0.815797 0
77.8901 -0.0453662 0
77.8827 0.14829 0
78.9968 0.758536 0
83.234 0.734175 0
82.864 4.10581 0
81.2941 -1.99059 0
84.4516 -1.7448 0
81.7695 4.90122 0
84.7496 8.30594 0
83.5691 -8.68827 0
82.6643 -1.91994 0
86.7963 1.60831 0
87.8882 5.01863 0
86.4344 -2.7869 0
87.6121 -0.0411904 0
90.883 -0.248085 0
93.3283 -1.28294 0
93.1779 0.486692 0
90.0493 0.02741 0
91.1107 0.004088 0
92.6267 0.594261 0
92.4085 -0.575454 0
91.2363 0.0331116 0
79.0696 -1.44953 0
78.4884 -0.574809 0
78.4098 1.2385 0
79.2394 0.952717 0
78.2427 1.22832 0
77.8891 0.242138 0
77.8596 -0.106388 0
78.1619 -1.12945 0
89.7216 0.948637 0
90.9664 1.86902 0
90.0509 -1.13832 0
90.2751 -0.16884 0
76.0049 -0.9602 0
77.8523 -0.155983 0
77.4874 -0.439769 0
77.8718 -0.376511 0
77.8564 0.204619 0
77.8976 0.967912 0
91.7658 0.988708 0
90.9596 0.155458 0
91.0735 -0.0055278 0
91.5121 -1.06353 0
81.7653 -0.0393206 0
80.9927 -2.82889 0
82.0762 1.80618 0
80.7459 0.448273 0
77.8939 4.0528 0
77.4269 7.32817 0
77.1621 -6.27171 0
78.3498 -3.23378 0
78.836 -2.11512 0
77.5739 -2.23267 0
77.9937 4.64524 0
78.2627 2.22789 0
91.2386 0.0450588 0
90.9526 0.141134 0
91.1508 -0.0474735 0
92.13 0.110356 0
79.8492 -5.4304 0
80.9425 -5.26585 0
80.5169 4.64595 0
81.088 8.54219 0
79.1634 -3.98596 0
80.336 -2.31614 0
80.1724 3.12085 0
79.3071 1.53951 0
91.0499 1.14168 0
90.5085 0.142193 0
90.7196 -0.0120262 0
90.6583 -1.02337 0
77.3336 1.01688 0
77.847 0.0289157 0
91.1376 -0.0584442 0
91.7781 -0.36053 0
91.4945 0.251881 0
90.9899 0.0386354 0
78.8641 -0.958171 0
78.3813 -1.33471 0
79.1855 1.74564 0
78.2504 0.735889 0
77.8958 -0.147261 0
78.164 -0.700492 0
77.9744 0.315586 0
77.8701 0.136357 0
74.1669 1.71515 0
76.9882 1.52632 0
87.2005 -3.14873 0
90.5722 -6.33912 0
91.5439 5.78441 0
86.9105 2.27119 0
76.8481 -2.31765 0
74.8007 -2.90401 0
89.8994 0.154308 0
90.1604 0.869454 0
89.2672 0.0739754 0
89.8433 0.823944 0
90.1791 -0.84695 0
90.0154 -0.140103 0
89.6295 -0.689167 0
89.5366 -0.0143609 0
90.8748 -0.21496 0
91 -0.618411 0
90.8483 0.389252 0
90.6176 0.00827196 0
77.8593 0.178975 0
77.6942 0.54055 0
76.4849 0.452079 0
74.2584 0.846639 0
77.7996 -0.251086 0
77.8426 -0.169492 0
77.3967 0.274506 0
77.3313 -0.752643 0
93.1375 -2.7134 0
89.9678 -1.74186 0
90.9553 2.2085 0
93.3093 1.57977 0
78.0365 -0.0631477 0
78.1432 -0.365049 0
77.8966 0.0535845 0
78.327 0.261504 0
90.3367 -0.204212 0
90.3643 -0.527496 0
90.3795 0.352933 0
90.0205 0.114202 0
89.1106 0.164517 0
89.2835 0.515207 0
89.3133 -0.601733 0
89.1932 -0.145992 0
78.5029 -0.899841 0
79.4449 -2.13813 0
78.875 1.61418 0
78.4867 1.27366 0
79.2178 2.88408 0
77.6162 1.85358 0
78.1575 -1.92509 0
78.8382 -2.79705 0
91.5712 -0.527038 0
92.5441 0.315582 0
92.7141 -0.310791 0
91.9931 0.561916 0
77.7126 -1.15128 0
77.8332 -1.36763 0
77.8526 1.08498 0
77.3663 1.30927 0
89.1404 0.533954 0
88.8663 0.159964 0
88.9205 -0.100362 0
89.0885 -0.45622 0
85.281 4.26661 0
87.3058 7.1245 0
86.7962 -8.39383 0
86.3398 -3.34222 0
75.2802 -3.42814 0
77.6016 -3.51724 0
84.8999 -3.06193 0
85.5538 -1.09754 0
83.8854 0.45423 0
87.2497 3.10313 0
74.881 4.62949 0
76.7634 2.73534 0
89.7504 -0.0515724 0
89.9238 -0.536449 0
89.8065 0.353446 0
89.7206 0.0952381 0
89.1446 -0.368808 0
88.9115 -1.51051 0
89.4691 2.08111 0
88.4828 0.271426 0
83.244 1.39725 0
81.4759 0.35065 0
82.6143 -0.337283 0
83.2878 -3.11057 0
91.4593 0.324177 0
91.7476 0.85918 0
91.9025 -0.935039 0
91.7656 -0.0625254 0
82.2681 -3.83192 0
83.3738 -1.83685 0
82.5822 2.7119 0
85.166 5.98579 0
88.7771 0.32647 0
88.6536 0.0619951 0
88.8094 -0.0979473 0
88.7744 -0.339825 0
89.2894 -0.181275 0
89.4318 -0.00947499 0
89.4082 0.10086 0
89.2674 0.425505 0
79.984 0.498321 0
79.7383 1.30528 0
80.0028 -1.14736 0
80.8601 -0.319703 0
81.5449 2.82827 0
79.9042 1.95043 0
79.2867 -2.83676 0
78.4442 -2.86548 0
90.9162 -0.477398 0
90.6613 -0.276517 0
90.4739 0.373003 0
91.4277 0.617499 0
79.9083 3.84862 0
80.4131 2.57291 0
79.3473 -0.825569 0
79.1719 -0.29417 0
79.0067 0.266122 0
79.7443 0.888913 0
76.6074 -0.875669 0
77.5654 -1.34976 0
92.493 -3.62361 0
90.0137 -2.05915 0
89.454 3.74107 0
92.885 3.68418 0
77.9147 -0.865852 0
77.8872 -0.143597 0
77.8286 0.198306 0
77.9877 0.848017 0
78.2544 0.0872641 0
78.2807 0.626683 0
78.4351 -0.34327 0
78.5863 -0.0198437 0
75.4825 -0.26911 0
73.1856 0.151677 0
85.2881 3.22153 0
89.4154 2.96731 0
88.0926 -2.51082 0
88.6903 -4.96527 0
77.627 2.0692 0
77.1811 1.15543 0
77.8594 -0.0254315 0
77.6792 -0.0509342 0
80.4878 6.83868 0
78.3596 4.06156 0
80.1128 -4.30055 0
79.1514 -8.11136 0
77.4047 0.785218 0
77.7871 0.424439 0
90.8842 0.517784 0
91.2254 1.12702 0
90.9414 -1.02526 0
90.8569 -0.202452 0
88.9321 -0.118163 0
89.1162 -0.0801179 0
89.0924 0.0687569 0
89.0141 0.395195 0
93.0802 0.407607 0
91.9114 1.36475 0
91.9876 -0.541601 0
93.2066 -0.662854 0
77.5027 0.107048 0
76.9017 -1.75416 0