# vtk DataFile Version 3.0
Unstructured Grid for Triangles
ASCII
DATASET UNSTRUCTURED_GRID
POINTS 29612 DOUBLE
-2.72397e-05 1.23686e-06 0
-2.95789e-05 9.5838e-07 0
-2.77865e-05 -3.1235e-07 0
0.0002024 5e-05 0
0.000203975 4.9875e-05 0
0.000205 5e-05 0
0.000203975 -4.9875e-05 0
0.0002024 -5e-05 0
0.000205 -5e-05 0
0.00020295 4.975e-05 0
0.00020295 -4.975e-05 0
0.000201925 4.9625e-05 0
0.000201925 -4.9625e-05 0
-5.29747e-05 -4.79887e-05 0
-5.5e-05 -5e-05 0
-5.24e-05 -5e-05 0
-5.05983e-05 -4.84325e-05 0
-4.98e-05 -5e-05 0
-4.72e-05 -5e-05 0
-4.83864e-05 -4.87761e-05 0
-4.46e-05 -5e-05 0
-4.59e-05 -4.84239e-05 0
-4.29453e-05 -4.24878e-05 0
-4.47486e-05 -4.20717e-05 0
-4.41829e-05 -4.36609e-05 0
-5.12578e-05 -4.62101e-05 0
-4.93077e-05 -4.53594e-05 0
-5.0706e-05 -4.39006e-05 0
-4.19243e-05 -4.77545e-05 0
-4.40307e-05 -4.71837e-05 0
-4.3691e-05 -4.86724e-05 0
-5.16129e-05 -4.20948e-05 0
-4.95355e-05 -4.15432e-05 0
-5.11646e-05 -4.0128e-05 0
-3.94697e-05 -4.81197e-05 0
-4.06302e-05 -4.55143e-05 0
-5.37257e-05 -3.88197e-05 0
-5.31099e-05 -4.07297e-05 0
-5.23982e-05 -3.88328e-05 0
-3.70063e-05 -4.72956e-05 0
-3.68e-05 -5e-05 0
-3.5308e-05 -4.85302e-05 0
-5.072e-05 -3.7867e-05 0
-4.85506e-05 -3.83975e-05 0
-4.90949e-05 -3.59622e-05 0
-3.37127e-05 -4.84331e-05 0
-3.16e-05 -5e-05 0
-3.26495e-05 -4.7415e-05 0
-5.5e-05 -3.5e-05 0
-5.31201e-05 -3.70361e-05 0
-5.28367e-05 -3.46817e-05 0
-3.63898e-05 -4.48809e-05 0
-3.83315e-05 -4.60336e-05 0
-3.26269e-06 -4.15503e-05 0
-5.99662e-06 -4.09556e-05 0
-5.46944e-06 -4.29488e-05 0
-5.29747e-05 4.79887e-05 0
-5.5e-05 5e-05 0
-5.5e-05 4.75e-05 0
-5.5e-05 4.5e-05 0
-5.34834e-05 4.29171e-05 0
-5.26943e-05 4.42611e-05 0
-5.34026e-05 4.60176e-05 0
-5.31099e-05 4.07297e-05 0
-5.11672e-05 4.01178e-05 0
-5.16129e-05 4.20948e-05 0
-5.24e-05 5e-05 0
-5.05983e-05 4.84325e-05 0
-5.31201e-05 3.70361e-05 0
-5.072e-05 3.7867e-05 0
-5.23982e-05 3.88328e-05 0
-4.8341e-05 4.69132e-05 0
-4.83679e-05 4.87539e-05 0
-5.28367e-05 3.46817e-05 0
-5.5e-05 3.25e-05 0
-5.25657e-05 3.28474e-05 0
-4.98e-05 5e-05 0
-5.30382e-05 3.125e-05 0
-4.19243e-05 4.77545e-05 0
-4.40015e-05 4.7335e-05 0
-4.25917e-05 4.63678e-05 0
-4.35138e-05 2.62661e-05 0
-4.14982e-05 2.74462e-05 0
-4.35654e-05 2.85217e-05 0
-4.59e-05 4.84239e-05 0
-4.36852e-05 4.87027e-05 0
-4.46e-05 5e-05 0
-5.33308e-05 2.92503e-05 0
-5.5e-05 2.75e-05 0
-5.23377e-05 2.76953e-05 0
-4.25282e-05 4.46352e-05 0
-4.09368e-05 4.35728e-05 0
-4.06302e-05 4.55143e-05 0
0.0002009 4.95e-05 0
0.0001998 5e-05 0
0.000199875 4.9375e-05 0
0.00019885 4.925e-05 0
0.0001972 5e-05 0
0.000197825 4.9125e-05 0
0.0001968 4.9e-05 0
0.000195775 4.8875e-05 0
0.0001946 5e-05 0
0.00019475 4.875e-05 0
0.000193725 4.8625e-05 0
0.000192 5e-05 0
0.0001927 4.85e-05 0
0.000191675 4.8375e-05 0
0.00019065 4.825e-05 0
0.0001894 5e-05 0
0.000189625 4.8125e-05 0
0.0001886 4.8e-05 0
0.0001868 5e-05 0
0.000187575 4.7875e-05 0
0.00018655 4.775e-05 0
0.000185515 4.8575e-05 0
0.0001842 5e-05 0
0.0001845 4.75e-05 0
0.000185525 4.7625e-05 0
0.000182564 4.829e-05 0
0.0001816 5e-05 0
0.00018245 4.725e-05 0
0.000183475 4.7375e-05 0
0.000181425 4.7125e-05 0
0.000180295 4.82657e-05 0
0.000179 5e-05 0
0.000179375 4.6875e-05 0
0.0001804 4.7e-05 0
0.000178168 4.80619e-05 0
0.0001764 5e-05 0
0.000177325 4.6625e-05 0
0.00017835 4.675e-05 0
0.000176428 4.76631e-05 0
0.0001763 4.65e-05 0
0.0001738 5e-05 0
0.0001751 4.84164e-05 0
0.000175275 4.6375e-05 0
0.000174025 4.75632e-05 0
0.0001712 5e-05 0
0.000172615 4.78449e-05 0
0.0001722 4.6e-05 0
0.000173225 4.6125e-05 0
0.00017015 4.575e-05 0
0.000171243 4.7381e-05 0
0.000169554 4.79999e-05 0
0.0001686 5e-05 0
0.000167507 4.79751e-05 0
0.000168498 4.64861e-05 0
0.000166 5e-05 0
0.00016558 4.71459e-05 0
0.000167135 4.62887e-05 0
0.0001681 4.55e-05 0
0.00016605 4.525e-05 0
0.000167075 4.5375e-05 0
0.000164059 4.61599e-05 0
0.00016394 4.79552e-05 0
0.000162881 4.6615e-05 0
0.000162975 4.4875e-05 0
0.000165025 4.5125e-05 0
0.000164 4.5e-05 0
0.000161754 4.58641e-05 0
0.000161722 4.78101e-05 0
0.000159956 4.58294e-05 0
0.000160925 4.4625e-05 0
0.00016195 4.475e-05 0
0.000157667 4.60322e-05 0
0.000158875 4.4375e-05 0
0.000159194 4.80155e-05 0
0.0001599 4.45e-05 0
0.00015785 4.425e-05 0
0.000155808 4.56757e-05 0
0.000155647 4.76701e-05 0
0.000154059 4.66642e-05 0
0.000153756 4.50083e-05 0
0.000154839 4.50446e-05 0
0.000156825 4.4125e-05 0
0.000151954 4.80508e-05 0
0.000154052 4.8477e-05 0
0.000153 5e-05 0
0.000154775 4.3875e-05 0
0.000152142 4.56625e-05 0
0.000152821 4.45753e-05 0
0.00015375 4.375e-05 0
0.0001504 5e-05 0
0.000149644 4.85168e-05 0
0.000151787 4.43178e-05 0
0.000152725 4.3625e-05 0
0.000150675 4.3375e-05 0
0.0001517 4.35e-05 0
0.000148119 4.50887e-05 0
0.000148072 4.75757e-05 0
0.000146584 4.63516e-05 0
0.000150008 4.6396e-05 0
0.000149351 4.4543e-05 0
0.00015061 4.46252e-05 0
0.0001476 4.3e-05 0
0.000148625 4.3125e-05 0
0.000146492 4.82975e-05 0
0.000144888 4.73562e-05 0
0.000146676 4.44259e-05 0
0.000145255 4.53656e-05 0
0.000145652 4.38669e-05 0
0.000141401 4.79821e-05 0
0.0001426 5e-05 0
0.00014 5e-05 0
0.000144374 4.38862e-05 0
0.00014555 4.275e-05 0
0.0001435 4.25e-05 0
0.000144525 4.2625e-05 0
0.000142746 4.38121e-05 0
0.000141288 4.43191e-05 0
0.000141707 4.32778e-05 0
0.00013921 4.38992e-05 0
0.000140355 4.5932e-05 0
0.000138302 4.5922e-05 0
0.000142912 4.58869e-05 0
0.000140592 4.30037e-05 0
0.00014145 4.225e-05 0
0.000136458 4.5869e-05 0
0.000137106 4.4063e-05 0
0.0001394 4.2e-05 0
0.000138259 4.28915e-05 0
0.000137484 4.77094e-05 0
0.000139166 4.78902e-05 0
0.00013586 4.78984e-05 0
0.000133449 4.78649e-05 0
0.000134717 4.61848e-05 0
0.000137256 4.25134e-05 0
0.000135323 4.24541e-05 0
0.000136325 4.1625e-05 0
0.000136122 4.2876e-05 0
0.000131206 4.47284e-05 0
0.000133168 4.56738e-05 0
0.000131773 4.65243e-05 0
0.000134756 4.40343e-05 0
0.000132747 4.36463e-05 0
0.000133483 4.26786e-05 0
0.000131081 4.1867e-05 0
0.000132382 4.22815e-05 0
0.000131507 4.3122e-05 0
0.000131059 4.80123e-05 0
0.00013325 4.125e-05 0
0.00012915 4.075e-05 0
0.00012982 4.18199e-05 0
0.000128915 4.26216e-05 0
0.000126366 4.47574e-05 0
0.000127331 4.30908e-05 0
0.000128781 4.44872e-05 0
0.000125336 4.28376e-05 0
0.000130218 4.31077e-05 0
0.000127894 4.16344e-05 0
0.000124774 4.69608e-05 0
0.000127668 4.64148e-05 0
0.000126591 4.8331e-05 0
0.000126722 4.18415e-05 0
0.000125768 4.11931e-05 0
0.000124326 4.13546e-05 0
0.00012505 4.025e-05 0
0.000122408 4.50118e-05 0
0.000120276 4.47432e-05 0
0.00012139 4.32235e-05 0
0.000124336 4.44132e-05 0
0.000123056 4.27595e-05 0
0.000122977 4.09049e-05 0
0.00012185 4.69217e-05 0
0.000122676 4.85947e-05 0
0.000120525 4.86094e-05 0
0.000121479 4.13153e-05 0
0.000119547 4.24221e-05 0
0.000120249 4.07448e-05 0
0.000119925 3.9625e-05 0
0.000119346 4.06114e-05 0
0.000117479 4.47279e-05 0
0.000114726 4.45259e-05 0
0.00011571 4.27814e-05 0
0.000119443 4.66611e-05 0
0.000117447 4.21596e-05 0
0.000118421 4.0752e-05 0
0.000117409 4.04437e-05 0
0.000116775 4.70073e-05 0
0.0001179 4.855e-05 0
0.000115473 4.84802e-05 0
0.00011685 3.925e-05 0
0.000117875 3.9375e-05 0
0.000115454 4.00551e-05 0
0.0001148 3.9e-05 0
0.000115825 3.9125e-05 0
0.000111704 4.23398e-05 0
0.000113786 4.26731e-05 0
0.000112589 4.43871e-05 0
0.000113234 4.06671e-05 0
0.000114754 4.13371e-05 0
0.0001106 4.42326e-05 0
0.000109703 4.24261e-05 0
0.00011275 3.875e-05 0
0.000113775 3.8875e-05 0
0.000110211 4.80875e-05 0
0.000108244 4.71951e-05 0
0.000109312 4.58413e-05 0
0.000111755 3.99116e-05 0
0.00010944 3.92972e-05 0
0.000110415 4.05876e-05 0
0.000108839 4.07536e-05 0
0.000106472 4.76905e-05 0
0.000107274 4.57868e-05 0
0.000108011 3.92415e-05 0
0.000106885 4.04365e-05 0
0.000106625 3.88708e-05 0
0.000105286 4.19254e-05 0
0.000105055 3.95469e-05 0
0.000104215 4.39764e-05 0
0.000106346 4.40629e-05 0
0.000100945 4.51249e-05 0
0.000102825 4.5614e-05 0
0.000101189 4.68452e-05 0
0.000107625 3.8125e-05 0
0.000105575 3.7875e-05 0
0.0001066 3.8e-05 0
0.000103352 4.76905e-05 0
0.000101803 4.8465e-05 0
0.000103685 3.89398e-05 0
0.00010245 3.8825e-05 0
0.000103525 3.7625e-05 0
0.000101092 3.99779e-05 0
0.000101267 3.82619e-05 0
0.000101382 4.2025e-05 0
0.000103187 4.05286e-05 0
0.000103359 4.24605e-05 0
9.87383e-05 4.5447e-05 0
9.99411e-05 4.35161e-05 0
9.744e-05 4.33145e-05 0
0.00010045 3.725e-05 0
0.000101475 3.7375e-05 0
9.70845e-05 4.65215e-05 0
9.52614e-05 4.67664e-05 0
9.61768e-05 4.49944e-05 0
9.9729e-05 3.87704e-05 0
9.78901e-05 3.9598e-05 0
9.85823e-05 3.81492e-05 0
9.62289e-05 3.93709e-05 0
9.74259e-05 3.81279e-05 0
9.7375e-05 3.6875e-05 0
9.63045e-05 3.76631e-05 0
9.58e-05 5e-05 0
9.32e-05 5e-05 0
9.47542e-05 4.8457e-05 0
9.49675e-05 3.85246e-05 0
9.36214e-05 3.89472e-05 0
9.40006e-05 3.74906e-05 0
9.66411e-05 4.12573e-05 0
9.44241e-05 4.07079e-05 0
9.03569e-05 4.24993e-05 0
9.21701e-05 4.02409e-05 0
9.27439e-05 4.27744e-05 0
8.89795e-05 4.09067e-05 0
9.03071e-05 4.0248e-05 0
9.25447e-05 3.77721e-05 0
9.3275e-05 3.6375e-05 0
9.07708e-05 3.87127e-05 0
9.11303e-05 3.70839e-05 0
9.11933e-05 4.55145e-05 0
9.30678e-05 4.73279e-05 0
9.11886e-05 4.82603e-05 0
8.87724e-05 3.88076e-05 0
8.99595e-05 3.75116e-05 0
9.02e-05 3.6e-05 0
8.89241e-05 3.6954e-05 0
8.36977e-05 4.59472e-05 0
8.36223e-05 4.83578e-05 0
8.20467e-05 4.74142e-05 0
8.71227e-05 4.03557e-05 0
8.61e-05 3.55e-05 0
8.68368e-05 3.65714e-05 0
8.5484e-05 3.6588e-05 0
8.47735e-05 4.02845e-05 0
8.23121e-05 4.21599e-05 0
8.26582e-05 3.98147e-05 0
8.46943e-05 4.2454e-05 0
8.38832e-05 3.78613e-05 0
8.35569e-05 3.63808e-05 0
8.44098e-05 3.6291e-05 0
8.5075e-05 3.5375e-05 0
8.51465e-05 4.77163e-05 0
8.3025e-05 3.5125e-05 0
8.22824e-05 3.68659e-05 0
8.1446e-05 3.57362e-05 0
8.05884e-05 3.71794e-05 0
7.53471e-05 4.77524e-05 0
7.38313e-05 4.73927e-05 0
7.39102e-05 4.61526e-05 0
7.9826e-05 3.58588e-05 0
7.88607e-05 3.76287e-05 0
7.81733e-05 3.57987e-05 0
8.16783e-05 3.84471e-05 0
8.07975e-05 4.04095e-05 0
7.52138e-05 4.04775e-05 0
7.67682e-05 4.17043e-05 0
7.49617e-05 4.21803e-05 0
7.52903e-05 3.84008e-05 0
7.38293e-05 3.93136e-05 0
[...]
CELL_DATA 58684
VECTORS velocity DOUBLE
74.3266 0.337184 0
87.5827 0.000154258 0
87.5567 -3.59045e-05 0
87.5877 -0.000775911 0
87.5606 0.000486883 0
87.5927 -0.00283191 0
87.5664 0.00333116 0
77.8868 -0.00107353 0
77.9051 -0.0248013 0
78.0269 -0.00219905 0
78.1501 -0.00448713 0
78.2191 -0.410164 0
77.9458 -0.1097 0
78.3032 -0.135276 0
77.9226 -0.184805 0
78.5123 -0.169914 0
77.8877 -0.112995 0
78.8888 -0.157722 0
77.9802 -0.317984 0
79.414 -0.110843 0
77.8996 -0.116341 0
78.8558 -0.370447 0
85.5684 -2.1693 0
77.8648 0.0125417 0
77.8712 0.0514752 0
77.864 0.0249715 0
77.9163 0.142701 0
77.9047 0.0236556 0
77.9089 0.188653 0
78.0233 0.0490548 0
77.8971 0.145575 0
77.9741 0.0335791 0
77.8608 0.143834 0
78.3785 0.162566 0
78.085 1.13494 0
78.2232 0.0689648 0
77.9084 0.180092 0
78.4612 0.35468 0
87.5972 -0.000529601 0
87.6021 0.000106841 0
87.6102 -0.00512221 0
87.6106 -0.0032674 0
87.619 0.000386085 0
87.6271 -0.00425385 0
87.6286 -0.00724317 0
87.6303 -0.00397411 0
87.6373 -5.07548e-05 0
87.6434 -0.0070436 0
87.6431 -0.0056813 0
87.6502 -0.000186099 0
87.6583 -0.00764254 0
87.6586 -0.00918151 0
87.6599 -0.00542305 0
87.666 -0.000633912 0
87.6713 -0.0090955 0
87.6708 -0.00751098 0
87.6771 -0.00108916 0
87.6853 -0.0114142 0
87.6853 -0.0117854 0
87.6868 -0.00639767 0
87.6945 -0.000440613 0
87.697 -0.0150783 0
87.7018 -0.00978815 0
87.711 -0.00135144 0
87.7126 -0.0174046 0
87.7131 -0.0153436 0
87.7194 -0.0119345 0
87.7245 -0.00129534 0
87.7253 -0.0179275 0
87.7317 -0.0128349 0
87.7374 -0.0015837 0
87.739 -0.0202238 0
87.7441 -0.0153327 0
87.7503 -0.0239184 0
87.7546 -0.00107034 0
87.7579 -0.0180727 0
87.7616 -0.0113845 0
87.7698 -0.00216313 0
87.7727 -0.0255427 0
87.7883 -0.0205067 0
87.7757 -0.0208262 0
87.7884 -0.00213196 0
87.7943 -0.0132373 0
87.7906 -0.0257947 0
87.8124 -0.0165674 0
87.8087 -0.022222 0
87.8088 -0.0299989 0
87.8179 -0.0365902 0
87.8318 -0.0233933 0
87.845 -0.0330812 0
87.8261 -0.0286258 0
87.8396 -0.0408767 0
87.851 -0.031355 0
87.8493 -0.030901 0
87.8573 -0.0430634 0
87.8816 -0.039726 0
87.8647 -0.0338313 0
87.8746 -0.0457579 0
87.8893 -0.0520395 0
87.8899 -0.0384253 0
87.9102 -0.0474935 0
87.8946 -0.0425543 0
87.9099 -0.0144353 0
87.9165 -0.0528438 0
87.9314 -0.0497166 0
87.9254 -0.0545625 0
87.9272 -0.0141351 0
87.9377 -0.0580594 0
87.9514 -0.0645168 0
87.9584 -0.0365842 0
87.957 -0.0389633 0
87.9464 -0.0527831 0
87.9757 -0.0688248 0
87.9685 -0.0283139 0
87.9982 -0.0625967 0
87.9837 -0.040504 0
88.0057 -0.00367828 0
88.0075 -0.0711576 0
88.0196 -0.0813996 0
88.0437 -0.0718701 0
88.0541 -0.0548463 0
88.0156 -0.0425664 0
88.0516 -0.0820415 0
88.0732 -0.0556004 0
88.0749 -0.0859568 0
88.0466 -0.0315277 0
88.0844 -0.0779611 0
88.0854 -0.0300797 0
88.0957 -0.0895828 0
88.1181 -0.102537 0
88.1354 -0.0610892 0
88.1358 -0.0861002 0
88.1051 -0.0404702 0
88.1687 -0.110143 0
88.1139 -0.0324202 0
88.1532 -0.109923 0
88.205 -0.122963 0
88.2089 -0.086915 0
88.2215 -0.105255 0
88.1916 -0.102614 0
88.2154 -0.112872 0
88.1744 -0.0478118 0
88.2505 -0.129155 0
88.2728 -0.142296 0
88.2874 -0.0930725 0
88.2217 -0.069485 0
88.2645 -0.12192 0
88.2822 -0.142831 0
88.2358 -0.0290867 0
88.337 -0.153405 0
88.3493 -0.169471 0
88.3699 -0.104808 0
88.2974 -0.0900939 0
88.356 -0.143048 0
88.3745 -0.169094 0
88.309 -0.0310754 0
88.3917 -0.194988 0
88.4317 -0.208564 0
88.4314 -0.146708 0
88.4347 -0.170244 0
88.4689 -0.155247 0
88.4635 -0.215976 0
88.4419 -0.0573856 0
88.4701 -0.203697 0
88.5281 -0.208032 0
88.488 -0.0677092 0
88.5824 -0.245508 0
88.601 -0.22689 0
88.5777 -0.145223 0
88.6207 -0.110871 0
88.5877 -0.251993 0
88.6198 -0.276796 0
88.5945 -0.0566346 0
88.6755 -0.281163 0
88.7148 -0.287993 0
88.6424 -0.206866 0
88.6876 -0.131678 0
88.7185 -0.170863 0
88.7444 -0.32871 0
88.7525 -0.112465 0
88.7942 -0.307821 0
88.8186 -0.302194 0
88.842 -0.352423 0
88.7755 -0.00599772 0
88.9245 -0.351484 0
88.8216 -0.272135 0
88.9178 -0.246698 0
88.9766 -0.287788 0
88.9685 -0.390154 0
89.0132 -0.393774 0
88.8764 -0.0891598 0
89.0426 -0.382995 0
89.0689 -0.44062 0
89.0788 -0.423919 0
89.1313 -0.0985173 0
89.0575 -0.336828 0
89.213 -0.488534 0
89.2418 -0.369941 0
89.171 -0.312067 0
89.2605 -0.51529 0
89.25 -0.509612 0
89.1245 -0.0887289 0
89.3362 -0.56577 0
89.3675 -0.532353 0
89.4964 -0.104956 0
89.4511 -0.583526 0
89.3133 -0.409658 0
89.5252 -0.374036 0
89.584 -0.48163 0
89.4951 -0.529532 0
89.5219 -0.633712 0
89.5467 -0.228674 0
89.6694 -0.613134 0
89.6342 -0.704018 0
89.7989 -0.716573 0
89.7306 -0.0124219 0
89.7498 -0.589299 0
89.8088 -0.741027 0
89.6422 -0.182666 0
89.8653 -0.779375 0
89.9348 -0.451173 0
89.9081 -0.814734 0
90.0688 -0.253661 0
90.0521 -0.705201 0
90.025 -0.828594 0
89.943 -0.127121 0
90.1539 -0.856139 0
90.3122 -0.836015 0
90.1671 -0.710199 0
90.1999 -0.430182 0
90.3452 -0.959481 0
90.3301 -0.377645 0
90.4637 -0.0648755 0
90.2872 -0.756822 0
90.4485 -0.951692 0
90.5314 -1.02129 0
90.5292 -0.321894 0
90.6571 -0.884021 0
90.8021 -0.969646 0
90.5885 -0.108019 0
90.9359 -0.944953 0
90.8607 -1.05327 0
90.7223 -0.779197 0
90.7605 -0.3766 0
90.8686 -0.441158 0
91.0012 -1.06095 0
90.8948 -0.00766768 0
91.1018 -1.13162 0
91.2268 -1.07619 0
91.1863 -1.13177 0
91.1229 -0.247222 0
91.2804 -0.923691 0
91.516 -0.940188 0
91.0749 -0.00578172 0
91.6057 -1.1152 0
91.7688 -0.950069 0
91.4298 -0.686819 0
91.2441 -0.283739 0
91.768 -1.0732 0
91.4032 -0.35298 0
91.1774 -0.0168635 0
91.6897 -0.723352 0
92.0162 -0.97933 0
92.1745 -0.915783 0
91.3526 -0.0769397 0
92.1149 -0.625884 0
92.2568 -0.821573 0
91.1947 0.0300242 0
92.3901 -0.811374 0
92.5698 -0.68228 0
92.1894 -0.242469 0
90.9227 0.00874005 0
92.7183 -0.459406 0
91.8444 0.19137 0
92.0712 0.296498 0
92.5889 -0.305394 0
92.3649 -0.04086 0
93.0343 -0.071064 0
91.035 0.368981 0
93.021 -0.174733 0
92.5621 0.403541 0
93.2079 0.468434 0
90.9574 0.106533 0
93.1521 1.17501 0
92.9188 1.4083 0
89.5284 0.197959 0
93.3802 0.862177 0
93.2712 1.34606 0
90.9025 1.47187 0
90.668 0.701486 0
92.2116 1.10219 0
93.1618 1.88272 0
89.784 0.330123 0
92.6552 2.77693 0
93.3385 2.11814 0
93.35 2.34676 0
88.9916 1.41391 0
91.6679 2.91134 0
92.7031 3.16519 0
88.979 0.231593 0
92.5143 3.66884 0
92.1611 3.55373 0
91.172 5.18604 0
86.639 0.397329 0
92.3205 4.8791 0
90.3191 3.52099 0
88.4345 1.56545 0
88.0296 2.9871 0
92.0806 5.38768 0
90.9308 5.84323 0
87.0841 0.608768 0
91.0022 6.67016 0
87.5708 0.000740235 0
87.5756 -0.000149967 0
87.5827 0.00437493 0
87.5829 0.00303869 0
87.5907 -0.000390235 0
87.5985 0.00406044 0
87.5997 0.0064766 0
87.6018 0.00316367 0
87.608 8.82654e-05 0
87.6137 0.00679087 0
87.6134 0.00492113 0
87.62 0.00014967 0
87.6276 0.00732738 0
87.6278 0.00882127 0
87.629 0.00522566 0
87.6349 0.000603567 0
87.6401 0.00902767 0
87.6396 0.00741846 0
87.6458 0.00108036 0
87.6539 0.011062 0
87.6539 0.0115366 0
87.6636 0.0154209 0
87.6554 0.00621534 0
87.6688 0.00918894 0
87.6791 0.0148935 0
87.6703 0.00987029 0
87.682 0.0152852 0
87.6883 0.0119398 0
87.6942 0.0187424 0
87.6853 0.00979893 0
87.7005 0.0130675 0
87.7077 0.0210559 0
87.6998 0.0102165 0
87.7198 0.0243825 0
87.7214 0.0234712 0
87.7255 0.0173653 0
87.715 0.0122188 0
87.7274 0.0184351 0
87.74 0.0180648 0
87.7311 0.0116396 0
87.752 0.0309597 0
87.749 0.0122337 0
87.7588 0.0208275 0
87.7475 0.0157098 0
87.7612 0.0261478 0
87.78 0.0302848 0
87.7831 0.0168799 0
87.775 0.027493 0
87.7932 0.0321879 0
87.7942 0.0362233 0
87.8103 0.0187945 0
87.8032 0.0235252 0
87.8163 0.0332227 0
87.8286 0.0460564 0
87.8296 0.0225825 0
87.8375 0.0366046 0
87.8453 0.0482515 0
87.8497 0.0274741 0
87.836 0.03391 0
87.8618 0.0528511 0
87.8622 0.0512034 0
87.865 0.0325226 0
87.8735 0.0233794 0
87.8826 0.0472911 0
87.8374 0.0142011 0
87.8979 0.0549217 0
87.9243 0.0656825 0
87.9084 0.0552079 0
87.8943 0.032858 0
87.9326 0.0660717 0
87.9379 0.058668 0
87.9435 0.0286047 0
87.9206 0.0536921 0
87.9537 0.0614822 0
87.9669 0.0702924 0
87.9226 0.0167172 0
87.9544 0.0505025 0
87.995 0.0815911 0
87.9605 0.0413826 0
88.0031 0.0723237 0
88.0256 0.085495 0
88.0014 0.0625657 0
88.0107 0.026032 0
88.0312 0.0750536 0
88.0473 0.0873193 0
88.0196 0.0214452 0
88.0658 0.0955729 0
88.0328 0.0694906 0
88.08 0.0797164 0
88.0449 0.0552232 0
88.0913 0.102564 0
88.1373 0.12303 0
88.0898 0.0319337 0
88.0964 0.0838897 0
88.1582 0.130051 0
88.1323 0.0933544 0
88.0819 0.0394102 0
88.1693 0.122206 0
88.1847 0.127599 0
88.1365 0.0316769 0
88.1751 0.0572361 0
88.2064 0.112155 0
88.2254 0.147574 0
88.1577 0.0780087 0
88.2482 0.143367 0
88.2641 0.152868 0
88.2479 0.0530443 0
88.2386 0.0948192 0
88.3014 0.169924 0
88.2914 0.144246 0
88.2002 0.0467685 0
88.3129 0.162279 0
88.352 0.174564 0
88.3152 0.0694466 0
88.3225 0.148385 0
88.4004 0.206546 0
88.3824 0.158148 0
88.2701 0.0504232 0
88.4183 0.194159 0
88.4717 0.233929 0
88.3583 0.0675385 0
88.4539 0.18653 0
88.4235 0.0876937 0
88.4863 0.194414 0
88.4077 0.109935 0
88.5198 0.247844 0
88.5632 0.24814 0
88.4645 0.0679066 0
88.5529 0.241423 0
88.6172 0.278696 0
88.5552 0.0722453 0
88.5244 0.202947 0
88.6008 0.23732 0
88.6546 0.282346 0
88.5352 0.0424169 0
88.6594 0.257363 0
88.7473 0.332913 0
88.7219 0.278951 0
88.6512 0.0851402 0
88.7823 0.290326 0
88.6151 0.108463 0
88.659 0.245985 0
88.7792 0.322243 0
88.8714 0.365619 0
88.8771 0.373777 0
88.6264 0.00780211 0
88.9621 0.424969 0
88.9698 0.414455 0
88.9817 0.365114 0
88.9147 0.180741 0
89.0047 0.197457 0
89.0008 0.409201 0
88.7895 0.111749 0
89.1061 0.462704 0
89.0946 0.4525 0
89.0959 0.406743 0
88.9865 0.117781 0
89.167 0.454053 0
89.28 0.564347 0
89.1339 0.21165 0
89.0916 0.225918 0
89.2339 0.456044 0
89.3863 0.588643 0
89.0206 0.140367 0
89.4213 0.621136 0
89.4529 0.605968 0
89.265 0.119498 0
89.577 0.692061 0
89.6058 0.665509 0
89.6591 0.573964 0
89.4507 0.253858 0
89.4272 0.287573 0
89.5866 0.642729 0
89.3399 0.18621 0
89.7381 0.76563 0
89.7842 0.724685 0
89.7775 0.667779 0
89.5254 0.102187 0
89.9384 0.788289 0
89.9522 0.805436 0
89.7997 0.454288 0
90.0335 0.634902 0
89.8112 0.368737 0
90.0003 0.773239 0
89.7082 0.234817 0
90.1461 0.901326 0
90.1669 0.872948 0
89.7376 0.185064 0
90.2281 0.803689 0
90.398 0.928558 0
90.3167 0.905112 0
90.1945 0.21186 0
90.5928 0.973063 0
90.634 1.0371 0
90.1628 0.628382 0
90.5255 0.769757 0
90.2127 0.383454 0
90.8156 1.09305 0
90.3637 0.118759 0
90.8741 1.06367 0
90.866 1.00909 0
90.1965 0.0942656 0
90.7975 0.912867 0
91.1707 1.08193 0
91.2583 1.09209 0
90.7325 0.27402 0
91.3266 1.06703 0
91.3736 1.13689 0
90.7253 0.691495 0
91.3747 0.752862 0
90.8771 0.266919 0
91.5327 1.13663 0
90.8953 0.0997329 0
91.6718 1.06297 0
91.7571 1.04838 0
90.7378 0.0691682 0
91.5789 0.866967 0
92.0347 0.980955 0
92.1919 0.918669 0
91.1382 0.176015 0
92.0309 0.859989 0
92.3242 0.871049 0
91.6676 0.740334 0
92.109 0.434489 0
91.2078 0.111147 0
92.0976 0.779051 0
91.2085 0.0409 0
92.5635 0.766857 0
92.6468 0.620592 0
91.1178 0.0383096 0
92.3492 0.307778 0
92.7906 0.339575 0
92.9747 0.205501 0
91.1706 -0.0968405 0
93.061 0.00383112 0
93.1045 -0.132983 0
91.3082 -0.264311 0
93.1183 -0.162698 0
92.3123 -0.623236 0
91.6044 -0.0864404 0
91.4184 0.00470269 0
93.2493 -0.453427 0
93.0044 -0.853851 0
93.4333 -1.02717 0
91.0596 -0.00497126 0
92.706 -1.30766 0
93.4264 -1.76466 0
91.0029 -0.122103 0
92.5405 -1.27634 0
93.397 -2.30668 0
91.9697 -1.74833 0
90.9636 -0.654151 0
93.2006 -2.65857 0
93.0587 -2.95387 0
91.9427 -1.10049 0
91.3534 -3.1311 0
89.2991 -2.59238 0
92.6947 -2.99573 0
89.7408 -0.403857 0
92.6736 -3.94869 0
90.0635 7.27582 0
90.8053 6.49827 0
85.3411 1.92521 0
89.9556 7.2342 0
87.6955 6.62633 0
89.2899 7.86997 0
85.9462 0.755214 0
88.2991 8.07677 0
87.1129 7.95301 0
84.6666 0.962591 0
87.1891 8.47939 0
92.5797 -4.37076 0
89.991 -0.251196 0
92.3089 -4.71834 0
91.056 -5.12489 0
90.5017 -4.41114 0
89.0738 -0.267423 0
91.2978 -5.71433 0
85.8674 7.75074 0
90.6355 -6.99802 0
88.8115 -1.39658 0
90.3087 -6.76479 0
89.4342 -7.73428 0
83.4878 2.36815 0
88.9924 -7.59194 0
90.2312 -4.22524 0
89.4887 -6.87572 0
87.6084 -5.09176 0
86.6662 -0.83669 0
88.5402 -6.98694 0
87.7364 -7.40047 0
85.2381 8.17902 0
87.8105 -7.41113 0
87.516 -0.453285 0
86.7665 -7.7685 0
86.2497 -8.4757 0
85.9701 -0.562817 0
85.1469 -8.62342 0
85.6564 -6.32654 0
83.7519 -0.652056 0
84.1243 -8.77705 0
84.1795 -4.86833 0
85.9268 -3.82917 0
84.6681 -7.51299 0
83.5451 -7.8675 0
86.245 4.3908 0
82.5555 0.528817 0
85.6443 2.93691 0
84.2716 -0.0728679 0
82.9985 -8.53496 0
84.8559 7.74714 0
82.2761 0.384829 0
84.2712 6.59306 0
82.1233 -8.39996 0
83.8324 -1.71737 0
81.3893 -6.13324 0
84.2771 8.83179 0
81.1339 2.02814 0
84.174 8.75733 0
81.9135 7.30703 0
81.4252 0.414039 0
82.5631 7.68071 0
82.0078 -6.37918 0
83.3306 -0.47518 0
81.2608 -8.52879 0
81.2761 -8.29637 0
82.9424 8.24924 0
80.9928 7.86672 0
80.7127 0.0403749 0
82.069 8.12012 0
80.1568 5.08996 0
80.7206 2.29181 0
80.3289 -8.47782 0
81.2012 -1.10109 0
80.6646 -8.35307 0
79.8645 8.32042 0
79.6927 -7.74628 0
80.3046 -1.07932 0
79.9407 -3.40374 0
78.42 -7.44256 0
81.4481 -4.11365 0
78.2758 -7.19721 0
79.7799 -0.289557 0
77.3547 -6.8772 0
79.4616 2.86858 0
80.0645 0.461535 0
79.4218 6.98591 0
79.4219 0.11554 0
79.2273 8.19736 0
78.9317 7.69461 0
79.0894 0.184642 0
78.1546 6.73429 0
78.8519 0.133357 0
78.7372 -6.43344 0
79.7789 -0.575757 0
79.9685 6.0549 0
77.957 0.739645 0
77.7042 6.32429 0
77.2357 -6.83836 0
79.893 -0.231487 0
75.5953 -5.84635 0
77.9183 -0.441783 0
76.4123 -5.75384 0
78.7075 2.55298 0
77.8608 0.120219 0
79.4502 -5.2371 0
77.8636 -0.113232 0
75.7104 -5.41721 0
77.101 5.70637 0
77.0969 -4.27681 0
77.8926 -0.24531 0
76.0021 -4.63929 0
78.078 3.14724 0
75.9196 1.99904 0
76.5891 4.93254 0
77.7137 -0.987341 0
75.8552 -5.1428 0
77.846 0.402846 0
76.5318 6.65681 0
77.8222 -2.38225 0
77.8619 -0.0847346 0
75.5158 -4.63768 0
76.2532 5.94819 0
77.8851 0.718223 0
76.1823 4.64837 0
75.9108 4.58884 0
77.8411 0.380578 0
75.1065 4.08487 0
74.6641 -4.16782 0
77.8648 -0.296402 0
74.3618 -4.15948 0
76.6876 -1.98378 0
77.87 -0.202421 0
73.7304 -2.83465 0
75.177 5.08319 0
77.8159 0.623117 0
76.385 3.25582 0
74.3332 -2.57535 0
77.7917 -0.3115 0
73.6908 -2.34581 0
74.0557 3.74051 0
77.8032 0.266958 0
74.451 3.52327 0
74.7439 2.87492 0
77.8616 0.0357573 0
73.9171 3.06196 0
75.0117 -1.51552 0
77.7548 -0.543103 0
74.3114 -1.33509 0
73.1478 -0.850937 0
77.1427 -0.92733 0
73.197 -0.720495 0
76.8588 0.961047 0
77.8186 0.0765549 0
75.9972 2.44131 0
73.6951 2.46607 0
77.7096 0.0596333 0
73.2711 1.55757 0
77.4601 -0.236731 0
77.8517 -0.111677 0
73.195 -0.237115 0
73.7139 -0.0931353 0
77.8364 -0.0662165 0
75.8949 0.308686 0
73.8793 0.528275 0
77.8429 -0.0623991 0
77.3109 -5.66836 0
77.9551 -0.433577 0
77.8548 0.132054 0
78.1734 6.89691 0
79.1309 -7.7521 0
82.1819 -0.947189 0
80.543 0.99781 0
81.8355 8.6276 0
77.8206 0.279804 0
74.6253 4.86389 0
74.0887 -2.84329 0
77.8207 -0.20028 0
77.9106 -0.572867 0
77.6657 -3.67762 0
77.9892 0.802377 0
77.9197 0.201528 0
77.8318 -0.000839545 0
73.7621 2.057 0
79.3817 0.467029 0
78.4566 1.57888 0
78.7887 -1.37462 0
80.3507 -0.692284 0
86.0595 -1.267 0
85.629 -8.46709 0
87.5439 8.0753 0
85.5844 0.46813 0
77.8146 1.66714 0
79.7786 8.01448 0
78.6843 -7.09654 0
79.3468 -2.31823 0
76.9669 -1.46118 0
74.7 -0.223635 0
76.2865 5.84223 0
78.1391 1.89592 0
77.9744 -1.79173 0
74.8906 -4.643 0
92.0514 -5.36052 0
88.7487 -0.659072 0
88.314 0.787994 0
92.5056 4.45272 0
77.9846 -0.81584 0
77.8922 -0.045542 0
77.8856 0.148227 0
79.0158 0.758962 0
83.2723 0.734562 0
82.9018 4.10853 0
81.3259 -1.99178 0
84.4938 -1.74614 0
81.8047 4.90442 0
84.7931 8.31202 0
83.6106 -8.69466 0
82.7008 -1.92106 0
86.8453 1.60935 0
87.9384 5.02192 0
86.4821 -2.78868 0
87.6635 -0.0411009 0
90.943 -0.247161 0
93.3913 -1.27689 0
93.2403 0.478649 0
90.1074 0.0273343 0
91.1726 0.0042898 0
92.6874 0.603259 0
92.4691 -0.583736 0
91.2978 0.0317204 0
79.0903 -1.45013 0
78.5029 -0.574881 0
78.4258 1.2389 0
79.2604 0.953381 0
78.2569 1.22881 0
77.8917 0.24242 0
77.8605 -0.106228 0
78.1746 -1.12989 0
89.7785 0.948445 0
91.0251 1.86796 0
90.1084 -1.13784 0
90.3335 -0.168659 0
76.0248 -0.960402 0
77.8559 -0.155974 0
77.4983 -0.439695 0
77.8763 -0.37678 0
77.8588 0.204385 0
77.9083 0.967889 0
91.8254 0.995775 0
91.0217 0.156598 0
91.1354 -0.00576031 0
91.5714 -1.06961 0
81.7985 -0.0393063 0
81.0238 -2.83073 0
82.1109 1.80738 0
80.7749 0.448465 0
77.9192 4.05512 0
77.4585 7.33259 0
77.1913 -6.27544 0
78.3728 -3.23565 0
78.8569 -2.11616 0
77.5929 -2.23341 0
78.0206 4.64765 0
78.2823 2.22863 0
91.2998 0.0433956 0
91.0131 0.140413 0
91.212 -0.0466487 0
92.1914 0.116218 0
79.8812 -5.43377 0
80.9764 -5.26918 0
80.5485 4.64878 0
81.1253 8.54816 0
79.191 -3.98829 0
80.3646 -2.31733 0
80.2012 3.12259 0
79.3293 1.54034 0
91.1098 1.14596 0
90.5715 0.142876 0
90.7822 -0.0122772 0
90.7191 -1.02635 0
77.348 1.01733 0
77.8489 0.0287467 0
91.1993 -0.0595265 0
91.839 -0.365646 0
91.5559 0.255149 0
91.0518 0.0390501 0
78.8825 -0.958601 0
78.397 -1.33527 0
79.2073 1.74667 0
78.2628 0.735887 0
77.8979 -0.147269 0
78.1741 -0.700802 0
77.9805 0.315549 0
77.872 0.136321 0
74.1911 1.71586 0
77.0057 1.5267 0
87.25 -3.1508 0
90.6277 -6.34305 0
91.6014 5.78723 0
86.9595 2.27242 0
76.8688 -2.31898 0
74.8249 -2.90541 0
89.9649 0.154798 0
90.2236 0.870688 0
89.3372 0.073726 0
89.9084 0.823982 0
90.2423 -0.848044 0
90.0803 -0.140546 0
89.6962 -0.68878 0
89.6044 -0.0146079 0
90.937 -0.216276 0
91.0613 -0.621725 0
90.9104 0.39129 0
90.6805 0.00845726 0
77.862 0.178809 0
77.703 0.540792 0
76.5026 0.452063 0
74.282 0.846943 0
77.8054 -0.251315 0
77.8448 -0.169335 0
77.4086 0.274349 0
77.3451 -0.753135 0
93.2 -2.71016 0
90.0247 -1.74165 0
91.0138 2.20764 0
93.3721 1.57404 0
78.0438 -0.0629951 0
78.1529 -0.364881 0
77.8993 0.0538442 0
78.3391 0.261574 0
90.4002 -0.20495 0
90.4275 -0.528897 0
90.4428 0.354073 0
90.0854 0.114484 0
89.182 0.164037 0
89.3537 0.514067 0
89.383 -0.600073 0
89.2639 -0.145422 0
78.5185 -0.900047 0
79.4688 -2.13947 0
78.8953 1.61495 0
78.5031 1.27403 0
79.2427 2.88559 0
77.6337 1.85426 0
78.1747 -1.92579 0
78.8612 -2.79862 0
91.6324 -0.524096 0
92.6054 0.323657 0
92.7752 -0.319366 0
92.0544 0.557966 0
77.7252 -1.15185 0
77.8472 -1.36815 0
77.8646 1.08539 0
77.382 1.30991 0
89.2118 0.53199 0
88.9408 0.158995 0
88.9943 -0.100146 0
89.1609 -0.454488 0
85.3251 4.26953 0
87.354 7.1296 0
86.8438 -8.40013 0
86.387 -3.3444 0
75.305 -3.42994 0
77.6253 -3.51892 0
84.9433 -3.06411 0
85.5991 -1.09829 0
83.9259 0.454663 0
87.2993 3.10497 0
74.9074 4.63189 0
76.7846 2.73658 0
89.8167 -0.0516056 0
89.9891 -0.537194 0
89.8725 0.353606 0
89.787 0.095236 0
89.1999 -0.368929 0
88.9659 -1.51085 0
89.5245 2.08152 0
88.5366 0.271553 0
83.2826 1.39827 0
81.5081 0.350946 0
82.6504 -0.337767 0
83.3268 -3.11271 0
91.5208 0.327873 0
91.8078 0.865854 0
91.9624 -0.942164 0
91.8271 -0.0668039 0
82.3044 -3.83431 0
83.4128 -1.83805 0
82.6189 2.71381 0
85.2099 5.99001 0
88.8534 0.324463 0
88.7311 0.0615642 0
88.8848 -0.0975843 0
88.8514 -0.337333 0
89.3592 -0.18098 0
89.5004 -0.00962301 0
89.4769 0.10102 0
89.3373 0.424573 0
80.0091 0.498697 0
79.7624 1.30616 0
80.0286 -1.14784 0
80.8892 -0.32019 0
81.5781 2.83023 0
79.9304 1.95148 0
79.3122 -2.83827 0
78.466 -2.86699 0
90.9762 -0.476162 0
90.7207 -0.275981 0
90.533 0.372331 0
91.4884 0.615127 0
79.9371 3.85079 0
80.4419 2.57474 0
79.369 -0.82589 0
79.1921 -0.294369 0
79.0257 0.26623 0
79.7687 0.889295 0
76.6252 -0.876024 0
77.58 -1.3503 0
92.5539 -3.62284 0
90.0703 -2.05908 0
89.5083 3.74251 0
92.9464 3.68301 0
77.924 -0.86587 0
77.8887 -0.143814 0
77.8308 0.198067 0
77.9969 0.848397 0
78.2656 0.0872274 0
78.2927 0.626953 0
78.4485 -0.3432 0
78.6013 -0.0198375 0
75.5039 -0.269334 0
73.2106 0.151719 0
85.3327 3.2238 0
89.4701 2.96836 0
88.1448 -2.51218 0
88.743 -4.96837 0
77.6449 2.0701 0
77.197 1.15612 0
77.86 -0.0254875 0
77.6869 -0.0511372 0
80.5223 6.84317 0
78.3853 4.06377 0
80.1433 -4.30303 0
79.1851 -8.11664 0
77.4171 0.785187 0
77.7928 0.424365 0
90.9461 0.520417 0
91.2849 1.13215 0
91.0019 -1.02908 0
90.9192 -0.20373 0
89.0057 -0.117653 0
89.188 -0.0799293 0
89.164 0.0686026 0
89.087 0.393553 0
93.1424 0.400239 0
91.9721 1.3618 0
92.0489 -0.537335 0
93.2694 -0.655517 0
77.5131 0.106906 0
76.9205 -1.75514 0