# vtk DataFile Version 3.0
Unstructured Grid for Triangles
ASCII
DATASET UNSTRUCTURED_GRID
POINTS 29612 DOUBLE
-2.72397e-05 1.23686e-06 0
-2.95789e-05 9.5838e-07 0
-2.77865e-05 -3.1235e-07 0
0.0002024 5e-05 0
0.000203975 4.9875e-05 0
0.000205 5e-05 0
0.000203975 -4.9875e-05 0
0.0002024 -5e-05 0
0.000205 -5e-05 0
0.00020295 4.975e-05 0
0.00020295 -4.975e-05 0
0.000201925 4.9625e-05 0
0.000201925 -4.9625e-05 0
-5.29747e-05 -4.79887e-05 0
-5.5e-05 -5e-05 0
-5.24e-05 -5e-05 0
-5.05983e-05 -4.84325e-05 0
-4.98e-05 -5e-05 0
-4.72e-05 -5e-05 0
-4.83864e-05 -4.87761e-05 0
-4.46e-05 -5e-05 0
-4.59e-05 -4.84239e-05 0
-4.29453e-05 -4.24878e-05 0
-4.47486e-05 -4.20717e-05 0
-4.41829e-05 -4.36609e-05 0
-5.12578e-05 -4.62101e-05 0
-4.93077e-05 -4.53594e-05 0
-5.0706e-05 -4.39006e-05 0
-4.19243e-05 -4.77545e-05 0
-4.40307e-05 -4.71837e-05 0
-4.3691e-05 -4.86724e-05 0
-5.16129e-05 -4.20948e-05 0
-4.95355e-05 -4.15432e-05 0
-5.11646e-05 -4.0128e-05 0
-3.94697e-05 -4.81197e-05 0
-4.06302e-05 -4.55143e-05 0
-5.37257e-05 -3.88197e-05 0
-5.31099e-05 -4.07297e-05 0
-5.23982e-05 -3.88328e-05 0
-3.70063e-05 -4.72956e-05 0
-3.68e-05 -5e-05 0
-3.5308e-05 -4.85302e-05 0
-5.072e-05 -3.7867e-05 0
-4.85506e-05 -3.83975e-05 0
-4.90949e-05 -3.59622e-05 0
-3.37127e-05 -4.84331e-05 0
-3.16e-05 -5e-05 0
-3.26495e-05 -4.7415e-05 0
-5.5e-05 -3.5e-05 0
-5.31201e-05 -3.70361e-05 0
-5.28367e-05 -3.46817e-05 0
-3.63898e-05 -4.48809e-05 0
-3.83315e-05 -4.60336e-05 0
-3.26269e-06 -4.15503e-05 0
-5.99662e-06 -4.09556e-05 0
-5.46944e-06 -4.29488e-05 0
-5.29747e-05 4.79887e-05 0
-5.5e-05 5e-05 0
-5.5e-05 4.75e-05 0
-5.5e-05 4.5e-05 0
-5.34834e-05 4.29171e-05 0
-5.26943e-05 4.42611e-05 0
-5.34026e-05 4.60176e-05 0
-5.31099e-05 4.07297e-05 0
-5.11672e-05 4.01178e-05 0
-5.16129e-05 4.20948e-05 0
-5.24e-05 5e-05 0
-5.05983e-05 4.84325e-05 0
-5.31201e-05 3.70361e-05 0
-5.072e-05 3.7867e-05 0
-5.23982e-05 3.88328e-05 0
-4.8341e-05 4.69132e-05 0
-4.83679e-05 4.87539e-05 0
-5.28367e-05 3.46817e-05 0
-5.5e-05 3.25e-05 0
-5.25657e-05 3.28474e-05 0
-4.98e-05 5e-05 0
-5.30382e-05 3.125e-05 0
-4.19243e-05 4.77545e-05 0
-4.40015e-05 4.7335e-05 0
-4.25917e-05 4.63678e-05 0
-4.35138e-05 2.62661e-05 0
-4.14982e-05 2.74462e-05 0
-4.35654e-05 2.85217e-05 0
-4.59e-05 4.84239e-05 0
-4.36852e-05 4.87027e-05 0
-4.46e-05 5e-05 0
-5.33308e-05 2.92503e-05 0
-5.5e-05 2.75e-05 0
-5.23377e-05 2.76953e-05 0
-4.25282e-05 4.46352e-05 0
-4.09368e-05 4.35728e-05 0
-4.06302e-05 4.55143e-05 0
0.0002009 4.95e-05 0
0.0001998 5e-05 0
0.000199875 4.9375e-05 0
0.00019885 4.925e-05 0
0.0001972 5e-05 0
0.000197825 4.9125e-05 0
0.0001968 4.9e-05 0
0.000195775 4.8875e-05 0
0.0001946 5e-05 0
0.00019475 4.875e-05 0
0.000193725 4.8625e-05 0
0.000192 5e-05 0
0.0001927 4.85e-05 0
0.000191675 4.8375e-05 0
0.00019065 4.825e-05 0
0.0001894 5e-05 0
0.000189625 4.8125e-05 0
0.0001886 4.8e-05 0
0.0001868 5e-05 0
0.000187575 4.7875e-05 0
0.00018655 4.775e-05 0
0.000185515 4.8575e-05 0
0.0001842 5e-05 0
0.0001845 4.75e-05 0
0.000185525 4.7625e-05 0
0.000182564 4.829e-05 0
0.0001816 5e-05 0
0.00018245 4.725e-05 0
0.000183475 4.7375e-05 0
0.000181425 4.7125e-05 0
0.000180295 4.82657e-05 0
0.000179 5e-05 0
0.000179375 4.6875e-05 0
0.0001804 4.7e-05 0
0.000178168 4.80619e-05 0
0.0001764 5e-05 0
0.000177325 4.6625e-05 0
0.00017835 4.675e-05 0
0.000176428 4.76631e-05 0
0.0001763 4.65e-05 0
0.0001738 5e-05 0
0.0001751 4.84164e-05 0
0.000175275 4.6375e-05 0
0.000174025 4.75632e-05 0
0.0001712 5e-05 0
0.000172615 4.78449e-05 0
0.0001722 4.6e-05 0
0.000173225 4.6125e-05 0
0.00017015 4.575e-05 0
0.000171243 4.7381e-05 0
0.000169554 4.79999e-05 0
0.0001686 5e-05 0
0.000167507 4.79751e-05 0
0.000168498 4.64861e-05 0
0.000166 5e-05 0
0.00016558 4.71459e-05 0
0.000167135 4.62887e-05 0
0.0001681 4.55e-05 0
0.00016605 4.525e-05 0
0.000167075 4.5375e-05 0
0.000164059 4.61599e-05 0
0.00016394 4.79552e-05 0
0.000162881 4.6615e-05 0
0.000162975 4.4875e-05 0
0.000165025 4.5125e-05 0
0.000164 4.5e-05 0
0.000161754 4.58641e-05 0
0.000161722 4.78101e-05 0
0.000159956 4.58294e-05 0
0.000160925 4.4625e-05 0
0.00016195 4.475e-05 0
0.000157667 4.60322e-05 0
0.000158875 4.4375e-05 0
0.000159194 4.80155e-05 0
0.0001599 4.45e-05 0
0.00015785 4.425e-05 0
0.000155808 4.56757e-05 0
0.000155647 4.76701e-05 0
0.000154059 4.66642e-05 0
0.000153756 4.50083e-05 0
0.000154839 4.50446e-05 0
0.000156825 4.4125e-05 0
0.000151954 4.80508e-05 0
0.000154052 4.8477e-05 0
0.000153 5e-05 0
0.000154775 4.3875e-05 0
0.000152142 4.56625e-05 0
0.000152821 4.45753e-05 0
0.00015375 4.375e-05 0
0.0001504 5e-05 0
0.000149644 4.85168e-05 0
0.000151787 4.43178e-05 0
0.000152725 4.3625e-05 0
0.000150675 4.3375e-05 0
0.0001517 4.35e-05 0
0.000148119 4.50887e-05 0
0.000148072 4.75757e-05 0
0.000146584 4.63516e-05 0
0.000150008 4.6396e-05 0
0.000149351 4.4543e-05 0
0.00015061 4.46252e-05 0
0.0001476 4.3e-05 0
0.000148625 4.3125e-05 0
0.000146492 4.82975e-05 0
0.000144888 4.73562e-05 0
0.000146676 4.44259e-05 0
0.000145255 4.53656e-05 0
0.000145652 4.38669e-05 0
0.000141401 4.79821e-05 0
0.0001426 5e-05 0
0.00014 5e-05 0
0.000144374 4.38862e-05 0
0.00014555 4.275e-05 0
0.0001435 4.25e-05 0
0.000144525 4.2625e-05 0
0.000142746 4.38121e-05 0
0.000141288 4.43191e-05 0
0.000141707 4.32778e-05 0
0.00013921 4.38992e-05 0
0.000140355 4.5932e-05 0
0.000138302 4.5922e-05 0
0.000142912 4.58869e-05 0
0.000140592 4.30037e-05 0
0.00014145 4.225e-05 0
0.000136458 4.5869e-05 0
0.000137106 4.4063e-05 0
0.0001394 4.2e-05 0
0.000138259 4.28915e-05 0
0.000137484 4.77094e-05 0
0.000139166 4.78902e-05 0
0.00013586 4.78984e-05 0
0.000133449 4.78649e-05 0
0.000134717 4.61848e-05 0
0.000137256 4.25134e-05 0
0.000135323 4.24541e-05 0
0.000136325 4.1625e-05 0
0.000136122 4.2876e-05 0
0.000131206 4.47284e-05 0
0.000133168 4.56738e-05 0
0.000131773 4.65243e-05 0
0.000134756 4.40343e-05 0
0.000132747 4.36463e-05 0
0.000133483 4.26786e-05 0
0.000131081 4.1867e-05 0
0.000132382 4.22815e-05 0
0.000131507 4.3122e-05 0
0.000131059 4.80123e-05 0
0.00013325 4.125e-05 0
0.00012915 4.075e-05 0
0.00012982 4.18199e-05 0
0.000128915 4.26216e-05 0
0.000126366 4.47574e-05 0
0.000127331 4.30908e-05 0
0.000128781 4.44872e-05 0
0.000125336 4.28376e-05 0
0.000130218 4.31077e-05 0
0.000127894 4.16344e-05 0
0.000124774 4.69608e-05 0
0.000127668 4.64148e-05 0
0.000126591 4.8331e-05 0
0.000126722 4.18415e-05 0
0.000125768 4.11931e-05 0
0.000124326 4.13546e-05 0
0.00012505 4.025e-05 0
0.000122408 4.50118e-05 0
0.000120276 4.47432e-05 0
0.00012139 4.32235e-05 0
0.000124336 4.44132e-05 0
0.000123056 4.27595e-05 0
0.000122977 4.09049e-05 0
0.00012185 4.69217e-05 0
0.000122676 4.85947e-05 0
0.000120525 4.86094e-05 0
0.000121479 4.13153e-05 0
0.000119547 4.24221e-05 0
0.000120249 4.07448e-05 0
0.000119925 3.9625e-05 0
0.000119346 4.06114e-05 0
0.000117479 4.47279e-05 0
0.000114726 4.45259e-05 0
0.00011571 4.27814e-05 0
0.000119443 4.66611e-05 0
0.000117447 4.21596e-05 0
0.000118421 4.0752e-05 0
0.000117409 4.04437e-05 0
0.000116775 4.70073e-05 0
0.0001179 4.855e-05 0
0.000115473 4.84802e-05 0
0.00011685 3.925e-05 0
0.000117875 3.9375e-05 0
0.000115454 4.00551e-05 0
0.0001148 3.9e-05 0
0.000115825 3.9125e-05 0
0.000111704 4.23398e-05 0
0.000113786 4.26731e-05 0
0.000112589 4.43871e-05 0
0.000113234 4.06671e-05 0
0.000114754 4.13371e-05 0
0.0001106 4.42326e-05 0
0.000109703 4.24261e-05 0
0.00011275 3.875e-05 0
0.000113775 3.8875e-05 0
0.000110211 4.80875e-05 0
0.000108244 4.71951e-05 0
0.000109312 4.58413e-05 0
0.000111755 3.99116e-05 0
0.00010944 3.92972e-05 0
0.000110415 4.05876e-05 0
0.000108839 4.07536e-05 0
0.000106472 4.76905e-05 0
0.000107274 4.57868e-05 0
0.000108011 3.92415e-05 0
0.000106885 4.04365e-05 0
0.000106625 3.88708e-05 0
0.000105286 4.19254e-05 0
0.000105055 3.95469e-05 0
0.000104215 4.39764e-05 0
0.000106346 4.40629e-05 0
0.000100945 4.51249e-05 0
0.000102825 4.5614e-05 0
0.000101189 4.68452e-05 0
0.000107625 3.8125e-05 0
0.000105575 3.7875e-05 0
0.0001066 3.8e-05 0
0.000103352 4.76905e-05 0
0.000101803 4.8465e-05 0
0.000103685 3.89398e-05 0
0.00010245 3.8825e-05 0
0.000103525 3.7625e-05 0
0.000101092 3.99779e-05 0
0.000101267 3.82619e-05 0
0.000101382 4.2025e-05 0
0.000103187 4.05286e-05 0
0.000103359 4.24605e-05 0
9.87383e-05 4.5447e-05 0
9.99411e-05 4.35161e-05 0
9.744e-05 4.33145e-05 0
0.00010045 3.725e-05 0
0.000101475 3.7375e-05 0
9.70845e-05 4.65215e-05 0
9.52614e-05 4.67664e-05 0
9.61768e-05 4.49944e-05 0
9.9729e-05 3.87704e-05 0
9.78901e-05 3.9598e-05 0
9.85823e-05 3.81492e-05 0
9.62289e-05 3.93709e-05 0
9.74259e-05 3.81279e-05 0
9.7375e-05 3.6875e-05 0
9.63045e-05 3.76631e-05 0
9.58e-05 5e-05 0
9.32e-05 5e-05 0
9.47542e-05 4.8457e-05 0
9.49675e-05 3.85246e-05 0
9.36214e-05 3.89472e-05 0
9.40006e-05 3.74906e-05 0
9.66411e-05 4.12573e-05 0
9.44241e-05 4.07079e-05 0
9.03569e-05 4.24993e-05 0
9.21701e-05 4.02409e-05 0
9.27439e-05 4.27744e-05 0
8.89795e-05 4.09067e-05 0
9.03071e-05 4.0248e-05 0
9.25447e-05 3.77721e-05 0
9.3275e-05 3.6375e-05 0
9.07708e-05 3.87127e-05 0
9.11303e-05 3.70839e-05 0
9.11933e-05 4.55145e-05 0
9.30678e-05 4.73279e-05 0
9.11886e-05 4.82603e-05 0
8.87724e-05 3.88076e-05 0
8.99595e-05 3.75116e-05 0
9.02e-05 3.6e-05 0
8.89241e-05 3.6954e-05 0
8.36977e-05 4.59472e-05 0
8.36223e-05 4.83578e-05 0
8.20467e-05 4.74142e-05 0
8.71227e-05 4.03557e-05 0
8.61e-05 3.55e-05 0
8.68368e-05 3.65714e-05 0
8.5484e-05 3.6588e-05 0
8.47735e-05 4.02845e-05 0
8.23121e-05 4.21599e-05 0
8.26582e-05 3.98147e-05 0
8.46943e-05 4.2454e-05 0
8.38832e-05 3.78613e-05 0
8.35569e-05 3.63808e-05 0
8.44098e-05 3.6291e-05 0
8.5075e-05 3.5375e-05 0
8.51465e-05 4.77163e-05 0
8.3025e-05 3.5125e-05 0
8.22824e-05 3.68659e-05 0
8.1446e-05 3.57362e-05 0
8.05884e-05 3.71794e-05 0
7.53471e-05 4.77524e-05 0
7.38313e-05 4.73927e-05 0
7.39102e-05 4.61526e-05 0
7.9826e-05 3.58588e-05 0
7.88607e-05 3.76287e-05 0
7.81733e-05 3.57987e-05 0
8.16783e-05 3.84471e-05 0
8.07975e-05 4.04095e-05 0
7.52138e-05 4.04775e-05 0
7.67682e-05 4.17043e-05 0
7.49617e-05 4.21803e-05 0
7.52903e-05 3.84008e-05 0
7.38293e-05 3.93136e-05 0
[...]
CELL_DATA 58684
VECTORS velocity DOUBLE
74.0335 0.337314 0
85.6421 -0.000124162 0
85.6126 6.07922e-05 0
85.6485 -0.00350026 0
85.6186 0.00395069 0
85.6543 -0.00231489 0
85.6247 0.00239629 0
77.8623 -0.00281345 0
77.8689 -0.0235527 0
77.947 -0.00400869 0
78.0405 -0.00691393 0
78.0899 -0.407232 0
77.8896 -0.10992 0
78.1632 -0.134194 0
77.8727 -0.185765 0
78.3401 -0.171843 0
77.8624 -0.111832 0
78.667 -0.156619 0
77.9087 -0.317545 0
79.1447 -0.113615 0
77.8767 -0.113953 0
78.6411 -0.367403 0
84.9756 -2.174 0
77.8555 0.0117067 0
77.8522 0.0514014 0
77.8554 0.0250209 0
77.875 0.141028 0
77.8685 0.0225709 0
77.8741 0.188839 0
77.9459 0.0493692 0
77.8728 0.144957 0
77.9097 0.0321836 0
77.8341 0.145161 0
78.2268 0.163383 0
77.9448 1.1293 0
78.0987 0.0675429 0
77.8855 0.176852 0
78.2947 0.354291 0
85.6643 0.00277558 0
85.6705 -0.000201141 0
85.6807 -0.00716218 0
85.6842 -0.00108999 0
85.6988 -0.000570974 0
85.7079 -0.00651996 0
85.7113 -0.00721314 0
85.7168 -0.00123916 0
85.7286 -0.000141238 0
85.7358 -0.00811441 0
85.7381 -0.00380857 0
85.753 -0.00120675 0
85.7618 -0.00932803 0
85.7646 -0.00866398 0
85.7688 -0.00279001 0
85.7813 -0.000541291 0
85.7882 -0.00986801 0
85.7898 -0.00644368 0
85.8048 -0.00213912 0
85.8142 -0.0121541 0
85.817 -0.0111253 0
85.8211 -0.00463048 0
85.8367 -0.000246391 0
85.837 -0.0129016 0
85.851 -0.00826493 0
85.8664 -0.000194919 0
85.8657 -0.0164175 0
85.8703 -0.0113099 0
85.8824 -0.0107163 0
85.8936 -0.000885152 0
85.8941 -0.0145915 0
85.9059 -0.0114373 0
85.9211 -0.00228011 0
85.9192 -0.0168467 0
85.9279 -0.0115661 0
85.9372 -0.021387 0
85.9544 -0.000556284 0
85.9556 -0.0160572 0
85.9638 -0.0105307 0
85.9841 -0.00160575 0
85.9837 -0.0211577 0
86.0144 -0.0181364 0
85.9899 -0.0165692 0
86.0187 -0.000414719 0
86.03 -0.0113835 0
86.0209 -0.0220126 0
86.0615 -0.0131513 0
86.0543 -0.0171668 0
86.0465 -0.0246548 0
86.0621 -0.0287337 0
86.0952 -0.018247 0
86.1112 -0.0266045 0
86.0818 -0.0217753 0
86.1024 -0.0318995 0
86.1305 -0.0238651 0
86.1223 -0.0253228 0
86.1325 -0.0340345 0
86.1749 -0.0333269 0
86.1573 -0.0281351 0
86.1614 -0.0358605 0
86.1845 -0.043281 0
86.1982 -0.033583 0
86.2292 -0.0390787 0
86.1985 -0.0333806 0
86.2359 -0.0104895 0
86.2318 -0.0440172 0
86.2574 -0.042503 0
86.2458 -0.0443887 0
86.267 -0.0146222 0
86.2639 -0.0481192 0
86.2833 -0.0519336 0
86.3148 -0.030637 0
86.3088 -0.0329881 0
86.29 -0.0444577 0
86.3291 -0.0571362 0
86.3346 -0.0237674 0
86.3643 -0.0534899 0
86.353 -0.0347822 0
86.4009 -0.00283876 0
86.3764 -0.0609677 0
86.3941 -0.0672616 0
86.4315 -0.0616366 0
86.4582 -0.0464627 0
86.4083 -0.0374306 0
86.4414 -0.0703769 0
86.488 -0.047923 0
86.4776 -0.0743032 0
86.4556 -0.0254153 0
86.4927 -0.0677708 0
86.5162 -0.0257334 0
86.507 -0.0788 0
86.537 -0.0910015 0
86.5808 -0.0547045 0
86.5694 -0.075461 0
86.5456 -0.0353503 0
86.6126 -0.100021 0
86.5605 -0.0282232 0
86.5885 -0.0988403 0
86.6614 -0.113575 0
86.6786 -0.080271 0
86.6972 -0.0985705 0
86.6502 -0.0953215 0
86.6802 -0.104728 0
86.6522 -0.0458649 0
86.727 -0.12187 0
86.7532 -0.1344 0
86.7918 -0.0892522 0
86.7115 -0.0644055 0
86.751 -0.115291 0
86.7731 -0.13684 0
86.7389 -0.0272197 0
86.8454 -0.148776 0
86.8578 -0.164191 0
86.9052 -0.101938 0
86.8158 -0.0879665 0
86.8745 -0.137834 0
86.8965 -0.166301 0
86.8402 -0.0294997 0
86.9146 -0.191982 0
86.9663 -0.206858 0
86.9844 -0.146969 0
86.9788 -0.169365 0
87.0331 -0.156639 0
87.0101 -0.215396 0
87.0144 -0.0566248 0
87.0204 -0.202675 0
87.0962 -0.208473 0
87.0713 -0.0683687 0
87.1636 -0.248352 0
87.1914 -0.229657 0
87.1718 -0.145769 0
87.2353 -0.112235 0
87.167 -0.2541 0
87.2047 -0.279975 0
87.2066 -0.0573425 0
87.2781 -0.284824 0
87.3277 -0.292837 0
87.2492 -0.210277 0
87.3124 -0.132538 0
87.35 -0.174687 0
87.3582 -0.334579 0
87.3962 -0.114064 0
87.4237 -0.312436 0
87.4553 -0.306979 0
87.4794 -0.358778 0
87.429 -0.00478825 0
87.5783 -0.357879 0
87.4655 -0.276522 0
87.5838 -0.250206 0
87.6517 -0.292092 0
87.6267 -0.396415 0
87.6822 -0.400518 0
87.5444 -0.0904317 0
87.7189 -0.388665 0
87.7457 -0.448392 0
87.7586 -0.431496 0
87.8446 -0.100535 0
87.7419 -0.343297 0
87.9093 -0.496618 0
87.9556 -0.377126 0
87.8785 -0.317845 0
87.9665 -0.524852 0
87.9522 -0.5182 0
87.8337 -0.0899144 0
88.0527 -0.576773 0
88.0886 -0.541783 0
88.261 -0.105584 0
88.1847 -0.596056 0
88.034 -0.416503 0
88.28 -0.382403 0
88.3431 -0.493579 0
88.238 -0.541704 0
88.2624 -0.646357 0
88.3172 -0.23489 0
88.4309 -0.624797 0
88.3868 -0.719693 0
88.5727 -0.732856 0
88.532 -0.0111103 0
88.5279 -0.605682 0
88.5853 -0.759559 0
88.4274 -0.188606 0
88.648 -0.80026 0
88.7428 -0.462913 0
88.6934 -0.836769 0
88.9074 -0.260779 0
88.8634 -0.723714 0
88.8282 -0.852426 0
88.7721 -0.132414 0
88.9693 -0.880554 0
89.1537 -0.862605 0
89.0013 -0.734725 0
89.0483 -0.444554 0
89.1849 -0.99287 0
89.2041 -0.391253 0
89.3724 -0.0673658 0
89.1332 -0.781211 0
89.3033 -0.984619 0
89.3935 -1.05847 0
89.4353 -0.333416 0
89.5473 -0.915375 0
89.7061 -1.00411 0
89.5187 -0.113349 0
89.8611 -0.978785 0
89.7681 -1.09353 0
89.6326 -0.810148 0
89.7022 -0.39137 0
89.8186 -0.458036 0
89.9305 -1.10196 0
89.8848 -0.00631671 0
90.0425 -1.17712 0
90.1855 -1.11597 0
90.1388 -1.17597 0
90.1369 -0.255918 0
90.2609 -0.958501 0
90.5224 -0.969877 0
90.1127 -0.0043199 0
90.6153 -1.15519 0
90.8094 -0.979288 0
90.4411 -0.708491 0
90.2711 -0.292981 0
90.8007 -1.10799 0
90.4397 -0.362056 0
90.2645 -0.0169269 0
90.7347 -0.742387 0
91.08 -1.00428 0
91.257 -0.934526 0
90.4422 -0.075559 0
91.2135 -0.633975 0
91.3514 -0.834128 0
90.3144 0.0319064 0
91.4998 -0.819891 0
91.6986 -0.681266 0
91.3133 -0.233611 0
90.0845 0.0109435 0
91.8665 -0.444334 0
90.9937 0.209252 0
91.2334 0.321634 0
91.738 -0.28805 0
91.5123 -0.0195752 0
92.2145 -0.0363915 0
90.2148 0.382269 0
92.1973 -0.143238 0
91.7447 0.44227 0
92.411 0.524646 0
90.1267 0.111816 0
92.3705 1.24268 0
92.1408 1.47594 0
88.7796 0.199785 0
92.5979 0.931655 0
92.4982 1.41805 0
90.1357 1.50694 0
89.8785 0.719331 0
91.4203 1.14863 0
92.3967 1.95891 0
89.0308 0.334686 0
91.9003 2.85697 0
92.5769 2.20848 0
92.5901 2.4381 0
88.281 1.43099 0
90.9261 2.97755 0
91.9577 3.2494 0
88.261 0.236605 0
91.7713 3.75443 0
91.4251 3.62262 0
90.4597 5.25094 0
86.0036 0.397336 0
91.5918 4.95971 0
89.6059 3.57331 0
87.7431 1.58042 0
87.3649 3.0088 0
91.3585 5.46615 0
90.2268 5.9022 0
86.4408 0.612933 0
90.296 6.73205 0
85.6344 -0.00213229 0
85.6414 0.000111516 0
85.6509 0.00662928 0
85.6545 0.000508649 0
85.6684 0.000601406 0
85.6772 0.00625724 0
85.6804 0.00590873 0
85.6865 0.000119323 0
85.6974 0.000250882 0
85.7048 0.00816056 0
85.7069 0.00385102 0
85.7214 0.00118887 0
85.7299 0.00884537 0
85.7328 0.00839303 0
85.737 0.00277099 0
85.7495 0.000538825 0
85.7563 0.00970469 0
85.7582 0.00603658 0
85.7732 0.00213763 0
85.7825 0.0123156 0
85.7854 0.0111992 0
85.8002 0.0146744 0
85.7895 0.00459443 0
85.8121 0.009744 0
85.8298 0.0147848 0
85.8195 0.00851326 0
85.8392 0.0120644 0
85.8514 0.011082 0
85.8597 0.0184267 0
85.8469 0.00897585 0
85.8751 0.0116838 0
85.8843 0.0202568 0
85.8748 0.00970383 0
85.9071 0.0227608 0
85.9128 0.019187 0
85.9207 0.0157804 0
85.9038 0.012046 0
85.9258 0.016643 0
85.9485 0.0159435 0
85.9342 0.0108885 0
85.9699 0.0265104 0
85.9732 0.00924931 0
85.9856 0.0184221 0
85.9659 0.0141741 0
85.9922 0.0223119 0
86.0183 0.0250238 0
86.0329 0.0134536 0
86.0157 0.0231577 0
86.0424 0.0278467 0
86.0473 0.029029 0
86.0812 0.014868 0
86.0673 0.0183614 0
86.083 0.0266964 0
86.1004 0.0376399 0
86.1156 0.0179511 0
86.1185 0.0307445 0
86.1286 0.0393934 0
86.1531 0.0240098 0
86.1287 0.0279816 0
86.157 0.0441365 0
86.1616 0.0407236 0
86.1778 0.0265357 0
86.1914 0.0190576 0
86.2015 0.038404 0
86.1325 0.0139709 0
86.2179 0.0445344 0
86.2553 0.0522426 0
86.2377 0.0445521 0
86.2234 0.0273568 0
86.2713 0.0526326 0
86.2796 0.0472146 0
86.3081 0.0237938 0
86.2631 0.0446986 0
86.309 0.0498158 0
86.328 0.0585087 0
86.275 0.0145044 0
86.3171 0.0417092 0
86.3679 0.0673916 0
86.3283 0.0348315 0
86.3808 0.0608937 0
86.4142 0.0728414 0
86.3908 0.0537378 0
86.413 0.0220306 0
86.4269 0.0636269 0
86.4456 0.0756379 0
86.431 0.0202533 0
86.4718 0.0835406 0
86.4398 0.0597242 0
86.4994 0.0707535 0
86.4577 0.0472025 0
86.509 0.0911247 0
86.5741 0.11204 0
86.5354 0.0279169 0
86.532 0.0763182 0
86.6006 0.119644 0
86.5798 0.0847031 0
86.5213 0.0343666 0
86.6182 0.111064 0
86.643 0.118815 0
86.6058 0.029074 0
86.6524 0.0541391 0
86.679 0.104758 0
86.6956 0.138934 0
86.626 0.0737814 0
86.7279 0.136459 0
86.7499 0.146368 0
86.7564 0.0503911 0
86.7315 0.0909047 0
86.8015 0.165152 0
86.7962 0.140989 0
86.6972 0.0468503 0
86.822 0.158994 0
86.8723 0.171 0
86.8481 0.0681229 0
86.8378 0.145727 0
86.9311 0.205363 0
86.9184 0.157018 0
86.7928 0.0496034 0
86.9558 0.19228 0
87.0255 0.235584 0
86.908 0.067339 0
87.0122 0.187311 0
86.9901 0.0870737 0
87.0551 0.196868 0
86.9682 0.110672 0
87.0862 0.250145 0
87.1434 0.250949 0
87.0482 0.068863 0
87.1341 0.244948 0
87.2109 0.283125 0
87.1656 0.0725158 0
87.1038 0.206134 0
87.2018 0.241734 0
87.2588 0.286808 0
87.139 0.0436209 0
87.2703 0.261302 0
87.3703 0.339168 0
87.3497 0.284088 0
87.283 0.0859621 0
87.4219 0.296403 0
87.2374 0.109763 0
87.2722 0.250972 0
87.4127 0.328612 0
87.5195 0.371975 0
87.5288 0.380943 0
87.2542 0.00670432 0
87.6249 0.433276 0
87.6362 0.421508 0
87.6588 0.372256 0
87.592 0.183387 0
87.6951 0.199071 0
87.6745 0.416593 0
87.4462 0.113502 0
87.7939 0.469386 0
87.7837 0.460921 0
87.7896 0.414433 0
87.6797 0.120202 0
87.8692 0.461083 0
87.9911 0.57466 0
87.8475 0.216157 0
87.7951 0.229297 0
87.9494 0.465313 0
88.1115 0.597893 0
87.7154 0.142309 0
88.15 0.632291 0
88.1876 0.616034 0
88.0017 0.121384 0
88.3252 0.706318 0
88.3581 0.678151 0
88.4266 0.586913 0
88.209 0.258709 0
88.1778 0.292416 0
88.3423 0.656372 0
88.0815 0.189213 0
88.5058 0.78329 0
88.5586 0.740354 0
88.5606 0.685453 0
88.2974 0.104275 0
88.7305 0.808434 0
88.7485 0.827168 0
88.5927 0.464996 0
88.8503 0.653917 0
88.6116 0.378405 0
88.8051 0.79483 0
88.4988 0.239674 0
88.9633 0.928311 0
88.9888 0.898779 0
88.5393 0.191197 0
89.0651 0.83028 0
89.2488 0.958948 0
89.1604 0.9357 0
89.0555 0.218648 0
89.4654 1.00664 0
89.5119 1.07568 0
89.0012 0.647908 0
89.4111 0.798956 0
89.0679 0.395978 0
89.7159 1.13545 0
89.2553 0.123396 0
89.7839 1.10487 0
89.7817 1.04753 0
89.0664 0.0979149 0
89.7154 0.948595 0
90.1215 1.12366 0
90.2207 1.13357 0
89.6748 0.285031 0
90.3006 1.10659 0
90.3534 1.18159 0
89.641 0.71624 0
90.3746 0.77651 0
89.8453 0.276538 0
90.5314 1.1796 0
89.8777 0.102055 0
90.6905 1.09976 0
90.7875 1.08226 0
89.6944 0.0731348 0
90.6053 0.895414 0
91.1002 1.00665 0
91.276 0.938209 0
90.1581 0.17991 0
91.1037 0.878616 0
91.4265 0.885567 0
90.7066 0.760598 0
91.2182 0.435416 0
90.2549 0.112216 0
91.1839 0.792721 0
90.2801 0.040483 0
91.6909 0.771346 0
91.785 0.616139 0
90.1648 0.0404174 0
91.4839 0.296204 0
91.9491 0.318835 0
92.1491 0.177153 0
90.3107 -0.100128 0
92.2458 -0.0355675 0
92.2962 -0.176216 0
90.4714 -0.279349 0
92.313 -0.209035 0
91.5027 -0.662142 0
90.7308 -0.0966442 0
90.5275 -0.00109414 0
92.4568 -0.51173 0
92.2153 -0.91423 0
92.6557 -1.1006 0
90.2021 -0.00728586 0
91.9292 -1.36904 0
92.6611 -1.85132 0
90.1723 -0.128294 0
91.7574 -1.33434 0
92.6385 -2.39944 0
91.2051 -1.80474 0
90.1623 -0.672065 0
92.4469 -2.75122 0
92.307 -3.04526 0
91.1488 -1.14288 0
90.6175 -3.1935 0
88.5953 -2.62181 0
91.9485 -3.07543 0
88.9879 -0.414921 0
91.9338 -4.03752 0
89.376 7.32535 0
90.1029 6.5568 0
84.7616 1.93186 0
89.2745 7.27925 0
87.0539 6.64932 0
88.6182 7.9071 0
85.3402 0.760234 0
87.6451 8.10368 0
86.4855 7.96745 0
84.1114 0.962654 0
86.5557 8.4958 0
91.8455 -4.45569 0
89.2236 -0.255718 0
91.5795 -4.80102 0
90.3465 -5.18892 0
89.7917 -4.468 0
88.3527 -0.2722 0
90.5852 -5.78382 0
85.2725 7.75281 0
89.9356 -7.05624 0
88.112 -1.4132 0
89.6151 -6.81932 0
88.7565 -7.77891 0
82.9771 2.36567 0
88.3228 -7.63013 0
89.5286 -4.27642 0
88.8127 -6.91865 0
86.9675 -5.11542 0
86.0299 -0.843461 0
87.8811 -7.0189 0
87.0963 -7.42357 0
84.6505 8.17982 0
87.1662 -7.43757 0
86.854 -0.458217 0
86.1463 -7.7801 0
85.6348 -8.48499 0
85.3606 -0.566974 0
84.5575 -8.62107 0
85.0639 -6.33208 0
83.2287 -0.656429 0
83.5507 -8.76902 0
83.6415 -4.86243 0
85.3284 -3.83892 0
84.0981 -7.51041 0
83.0004 -7.85407 0
85.6386 4.40385 0
82.0899 0.530191 0
85.0543 2.94317 0
83.7306 -0.0755776 0
82.4545 -8.51786 0
84.2802 7.7452 0
81.8246 0.384527 0
83.7201 6.58594 0
81.5999 -8.37843 0
83.308 -1.71504 0
80.9187 -6.11204 0
83.7028 8.82506 0
80.7346 2.01966 0
83.6019 8.74855 0
81.4245 7.2839 0
81.0184 0.411401 0
82.0399 7.66519 0
81.5147 -6.36462 0
82.8317 -0.472607 0
80.7563 -8.50507 0
80.7765 -8.27059 0
82.4066 8.23368 0
80.5118 7.84127 0
80.3479 0.0430197 0
81.5557 8.09996 0
79.7495 5.0674 0
80.3394 2.28072 0
79.8433 -8.44894 0
80.8022 -1.09417 0
80.1759 -8.32438 0
79.3872 8.29109 0
79.2311 -7.71745 0
79.9568 -1.07392 0
79.5754 -3.3895 0
77.9854 -7.40882 0
81.0089 -4.09968 0
77.8478 -7.16494 0
79.474 -0.290531 0
76.9424 -6.84361 0
79.1329 2.85697 0
79.7359 0.460367 0
78.9753 6.96009 0
79.1518 0.117674 0
78.7614 8.16758 0
78.4843 7.6614 0
78.8469 0.185727 0
77.7406 6.7031 0
78.6403 0.133545 0
78.3281 -6.40505 0
79.4706 -0.573995 0
79.544 6.03157 0
77.8614 0.733578 0
77.3008 6.29281 0
76.8312 -6.80356 0
79.5829 -0.228912 0
75.2183 -5.81722 0
77.8586 -0.440796 0
76.0394 -5.7256 0
78.4269 2.54225 0
77.8525 0.121024 0
79.0531 -5.21047 0
77.8537 -0.112984 0
75.3485 -5.39002 0
76.7192 5.6769 0
76.7627 -4.2512 0
77.8623 -0.241197 0
75.6614 -4.61483 0
77.7822 3.13265 0
75.649 1.98665 0
76.2313 4.90773 0
77.5803 -0.981404 0
75.4987 -5.11438 0
77.7966 0.402647 0
76.1331 6.62479 0
77.5758 -2.36927 0
77.8549 -0.0840196 0
75.1761 -4.61439 0
75.87 5.91782 0
77.7989 0.715806 0
75.8435 4.624 0
75.5619 4.56336 0
77.7892 0.381863 0
74.7735 4.06486 0
74.3204 -4.14201 0
77.826 -0.294228 0
74.0196 -4.13626 0
76.4358 -1.96806 0
77.8446 -0.199836 0
73.4042 -2.81812 0
74.8241 5.05725 0
77.7187 0.618578 0
76.0941 3.23883 0
74.0178 -2.55898 0
77.726 -0.31207 0
73.3691 -2.33149 0
73.7181 3.71978 0
77.7346 0.263981 0
74.1229 3.505 0
74.4282 2.85814 0
77.8521 0.0342174 0
73.5891 3.04568 0
74.7276 -1.50596 0
77.6576 -0.538267 0
74.0121 -1.32789 0
72.8278 -0.844979 0
76.9559 -0.919511 0
72.879 -0.71611 0
76.6513 0.956619 0
77.775 0.0795872 0
75.712 2.42403 0
73.3709 2.45227 0
77.6252 0.0592441 0
72.9492 1.5492 0
77.3239 -0.234158 0
77.8341 -0.112726 0
72.8778 -0.234998 0
73.4069 -0.0917292 0
77.7967 -0.0657415 0
75.6463 0.306191 0
73.574 0.524472 0
77.8143 -0.0617791 0
76.9422 -5.63931 0
77.8868 -0.431847 0
77.8371 0.133876 0
77.7506 6.86404 0
78.6755 -7.72156 0
81.7326 -0.942962 0
80.18 0.994586 0
81.3159 8.60443 0
77.7774 0.280064 0
74.2734 4.83845 0
73.7677 -2.82753 0
77.7973 -0.202906 0
77.8326 -0.573198 0
77.3509 -3.65646 0
77.8819 0.800268 0
77.8955 0.198088 0
77.7856 -0.000103641 0
73.4453 2.04702 0
79.109 0.464618 0
78.2429 1.57041 0
78.5554 -1.3701 0
80.0013 -0.688734 0
85.4514 -1.27557 0
85.03 -8.46962 0
86.9064 8.09419 0
84.9929 0.469948 0
77.6182 1.65827 0
79.3068 7.98433 0
78.2572 -7.06293 0
79.0408 -2.30834 0
76.7582 -1.45478 0
74.4141 -0.218877 0
75.9086 5.81214 0
77.9293 1.88366 0
77.7727 -1.78402 0
74.5463 -4.61926 0
91.3296 -5.4398 0
88.0413 -0.666306 0
87.6252 0.797731 0
91.7692 4.54039 0
77.8767 -0.813417 0
77.8678 -0.0436031 0
77.8518 0.148866 0
78.7787 0.753925 0
82.7739 0.738143 0
82.4034 4.1051 0
80.9121 -1.98635 0
83.9432 -1.74778 0
81.3353 4.891 0
84.2139 8.30937 0
83.0517 -8.68287 0
82.2217 -1.91834 0
86.2085 1.61699 0
87.2867 5.04841 0
85.8614 -2.80004 0
86.9925 -0.0438496 0
90.1233 -0.255984 0
92.619 -1.35374 0
92.4455 0.53692 0
89.3333 0.0298712 0
90.2511 0.00211244 0
91.8299 0.596382 0
91.5988 -0.58068 0
90.4166 0.0387802 0
78.8325 -1.44228 0
78.3246 -0.571705 0
78.2304 1.23372 0
78.9975 0.946001 0
78.0844 1.22155 0
77.8616 0.238907 0
77.8509 -0.107736 0
78.0212 -1.12211 0
89.0367 0.965123 0
90.2697 1.90988 0
89.3556 -1.16097 0
89.5486 -0.17364 0
75.7826 -0.956422 0
77.8143 -0.154962 0
77.3708 -0.438709 0
77.8244 -0.372364 0
77.8321 0.206389 0
77.7806 0.966016 0
90.8674 1.02607 0
90.0202 0.160183 0
90.1936 -0.00365794 0
90.5757 -1.10625 0
81.3696 -0.0421074 0
80.6219 -2.81995 0
81.6586 1.80303 0
80.4006 0.447726 0
77.5957 4.03102 0
77.0369 7.29991 0
76.8027 -6.24226 0
78.0806 -3.2151 0
78.5941 -2.10311 0
77.3581 -2.22362 0
77.672 4.62553 0
78.0379 2.21881 0
90.4268 0.0496722 0
90.172 0.144044 0
90.3413 -0.0507619 0
91.3236 0.100999 0
79.46 -5.41281 0
80.5281 -5.2527 0
80.1335 4.63244 0
80.6224 8.52326 0
78.8345 -3.97008 0
79.9974 -2.30998 0
79.8275 3.11255 0
79.0489 1.53125 0
90.0504 1.19262 0
89.4947 0.146456 0
89.7492 -0.0108045 0
89.6108 -1.06501 0
77.174 1.00959 0
77.8276 0.0308498 0
90.262 -0.0598162 0
90.9222 -0.36716 0
90.6275 0.256621 0
90.079 0.0399235 0
78.6548 -0.952584 0
78.2054 -1.32689 0
78.9338 1.73672 0
78.1146 0.735041 0
77.8736 -0.146496 0
78.0508 -0.695607 0
77.9089 0.315261 0
77.8499 0.136589 0
73.8866 1.70847 0
76.7878 1.51906 0
86.6151 -3.16628 0
89.929 -6.39978 0
90.885 5.85901 0
86.3259 2.28715 0
76.6091 -2.30204 0
74.5148 -2.88901 0
88.7936 0.158774 0
89.0557 0.898233 0
88.0853 0.0751712 0
88.697 0.846008 0
89.0726 -0.874341 0
88.9269 -0.143709 0
88.459 -0.703869 0
88.3874 -0.0136077 0
89.9206 -0.223541 0
90.0246 -0.643603 0
89.8739 0.405232 0
89.6276 0.00731716 0
77.8316 0.180121 0
77.5983 0.536541 0
76.2879 0.452353 0
73.9839 0.843414 0
77.7378 -0.247225 0
77.8192 -0.170423 0
77.267 0.275292 0
77.1793 -0.744989 0
92.446 -2.8058 0
89.2875 -1.77177 0
90.2694 2.25456 0
92.603 1.65779 0
77.9577 -0.0642301 0
78.0368 -0.366201 0
77.8688 0.0509483 0
78.1934 0.260024 0
89.2919 -0.21122 0
89.3029 -0.546743 0
89.336 0.366953 0
88.9338 0.117363 0
87.9012 0.166421 0
88.0831 0.524168 0
88.1019 -0.612244 0
87.9935 -0.149302 0
78.3302 -0.896129 0
79.1686 -2.12584 0
78.641 1.60791 0
78.3006 1.26936 0
78.9255 2.87223 0
77.4193 1.84422 0
77.9611 -1.91613 0
78.567 -2.7826 0
90.8043 -0.546373 0
91.7575 0.306797 0
91.9311 -0.298083 0
91.2296 0.58847 0
77.5712 -1.14249 0
77.6783 -1.35905 0
77.7223 1.07806 0
77.1927 1.30004 0
87.9129 0.541471 0
87.622 0.162123 0
87.683 -0.101355 0
87.8527 -0.462275 0
84.7512 4.27402 0
86.7249 7.14874 0
86.2159 -8.41416 0
85.78 -3.35617 0
74.9882 -3.41077 0
77.3223 -3.50234 0
84.3807 -3.06584 0
85.0085 -1.09928 0
83.3993 0.452975 0
86.6547 3.12392 0
74.5641 4.6095 0
76.5186 2.72288 0
88.6321 -0.0523286 0
88.8007 -0.551991 0
88.6853 0.365588 0
88.5962 0.0992126 0
88.4686 -0.373214 0
88.2564 -1.52849 0
88.808 2.11026 0
87.8348 0.274652 0
82.7856 1.39504 0
81.0906 0.350123 0
82.1804 -0.335111 0
82.8156 -3.11168 0
90.5816 0.333827 0
90.8585 0.889138 0
91.0232 -0.966651 0
90.9402 -0.0581297 0
81.831 -3.82778 0
82.907 -1.83782 0
82.1415 2.70841 0
84.6345 5.99277 0
87.5053 0.329787 0
87.3791 0.062639 0
87.558 -0.0994728 0
87.4915 -0.34359 0
88.1013 -0.184929 0
88.2694 -0.00867686 0
88.241 0.102054 0
88.0682 0.43194 0
79.689 0.494983 0
79.4548 1.29894 0
79.7011 -1.14481 0
80.5125 -0.316633 0
81.149 2.82106 0
79.5996 1.94416 0
78.9867 -2.82683 0
78.1892 -2.84969 0
90.164 -0.490888 0
89.9131 -0.282911 0
89.7398 0.38163 0
90.6704 0.640115 0
79.5594 3.83696 0
80.0713 2.56182 0
79.0947 -0.820943 0
78.9383 -0.291218 0
78.7921 0.264281 0
79.4592 0.887026 0
76.4064 -0.869456 0
77.4027 -1.34116 0
91.8114 -3.71004 0
89.3432 -2.0931 0
88.8142 3.78446 0
92.2006 3.77631 0
77.814 -0.863828 0
77.8715 -0.140963 0
77.8055 0.200538 0
77.8874 0.841914 0
78.1327 0.0876458 0
78.1466 0.622398 0
78.2856 -0.343925 0
78.4192 -0.0208072 0
75.2382 -0.266176 0
72.8943 0.151173 0
84.7535 3.2271 0
88.7657 3.00184 0
87.4728 -2.52918 0
88.0743 -5.00201 0
77.4219 2.05755 0
77.0023 1.14491 0
77.8533 -0.0247198 0
77.5963 -0.0483459 0
80.0618 6.82026 0
78.0514 4.04228 0
79.7453 -4.28809 0
78.7242 -8.08467 0
77.269 0.783587 0
77.7249 0.424385 0
89.9069 0.539232 0
90.2516 1.17689 0
89.9358 -1.06999 0
89.8961 -0.209026 0
87.6983 -0.120288 0
87.9115 -0.081592 0
87.8837 0.0698406 0
87.7781 0.400363 0
92.3424 0.450226 0
91.1926 1.40957 0
91.2295 -0.568957 0
92.4818 -0.716794 0
77.3893 0.108669 0