# vtk DataFile Version 3.0
Unstructured Grid for Triangles
ASCII
DATASET UNSTRUCTURED_GRID
POINTS 29612 DOUBLE
-2.72397e-05 1.23686e-06 0
-2.95789e-05 9.5838e-07 0
-2.77865e-05 -3.1235e-07 0
0.0002024 5e-05 0
0.000203975 4.9875e-05 0
0.000205 5e-05 0
0.000203975 -4.9875e-05 0
0.0002024 -5e-05 0
0.000205 -5e-05 0
0.00020295 4.975e-05 0
0.00020295 -4.975e-05 0
0.000201925 4.9625e-05 0
0.000201925 -4.9625e-05 0
-5.29747e-05 -4.79887e-05 0
-5.5e-05 -5e-05 0
-5.24e-05 -5e-05 0
-5.05983e-05 -4.84325e-05 0
-4.98e-05 -5e-05 0
-4.72e-05 -5e-05 0
-4.83864e-05 -4.87761e-05 0
-4.46e-05 -5e-05 0
-4.59e-05 -4.84239e-05 0
-4.29453e-05 -4.24878e-05 0
-4.47486e-05 -4.20717e-05 0
-4.41829e-05 -4.36609e-05 0
-5.12578e-05 -4.62101e-05 0
-4.93077e-05 -4.53594e-05 0
-5.0706e-05 -4.39006e-05 0
-4.19243e-05 -4.77545e-05 0
-4.40307e-05 -4.71837e-05 0
-4.3691e-05 -4.86724e-05 0
-5.16129e-05 -4.20948e-05 0
-4.95355e-05 -4.15432e-05 0
-5.11646e-05 -4.0128e-05 0
-3.94697e-05 -4.81197e-05 0
-4.06302e-05 -4.55143e-05 0
-5.37257e-05 -3.88197e-05 0
-5.31099e-05 -4.07297e-05 0
-5.23982e-05 -3.88328e-05 0
-3.70063e-05 -4.72956e-05 0
-3.68e-05 -5e-05 0
-3.5308e-05 -4.85302e-05 0
-5.072e-05 -3.7867e-05 0
-4.85506e-05 -3.83975e-05 0
-4.90949e-05 -3.59622e-05 0
-3.37127e-05 -4.84331e-05 0
-3.16e-05 -5e-05 0
-3.26495e-05 -4.7415e-05 0
-5.5e-05 -3.5e-05 0
-5.31201e-05 -3.70361e-05 0
-5.28367e-05 -3.46817e-05 0
-3.63898e-05 -4.48809e-05 0
-3.83315e-05 -4.60336e-05 0
-3.26269e-06 -4.15503e-05 0
-5.99662e-06 -4.09556e-05 0
-5.46944e-06 -4.29488e-05 0
-5.29747e-05 4.79887e-05 0
-5.5e-05 5e-05 0
-5.5e-05 4.75e-05 0
-5.5e-05 4.5e-05 0
-5.34834e-05 4.29171e-05 0
-5.26943e-05 4.42611e-05 0
-5.34026e-05 4.60176e-05 0
-5.31099e-05 4.07297e-05 0
-5.11672e-05 4.01178e-05 0
-5.16129e-05 4.20948e-05 0
-5.24e-05 5e-05 0
-5.05983e-05 4.84325e-05 0
-5.31201e-05 3.70361e-05 0
-5.072e-05 3.7867e-05 0
-5.23982e-05 3.88328e-05 0
-4.8341e-05 4.69132e-05 0
-4.83679e-05 4.87539e-05 0
-5.28367e-05 3.46817e-05 0
-5.5e-05 3.25e-05 0
-5.25657e-05 3.28474e-05 0
-4.98e-05 5e-05 0
-5.30382e-05 3.125e-05 0
-4.19243e-05 4.77545e-05 0
-4.40015e-05 4.7335e-05 0
-4.25917e-05 4.63678e-05 0
-4.35138e-05 2.62661e-05 0
-4.14982e-05 2.74462e-05 0
-4.35654e-05 2.85217e-05 0
-4.59e-05 4.84239e-05 0
-4.36852e-05 4.87027e-05 0
-4.46e-05 5e-05 0
-5.33308e-05 2.92503e-05 0
-5.5e-05 2.75e-05 0
-5.23377e-05 2.76953e-05 0
-4.25282e-05 4.46352e-05 0
-4.09368e-05 4.35728e-05 0
-4.06302e-05 4.55143e-05 0
0.0002009 4.95e-05 0
0.0001998 5e-05 0
0.000199875 4.9375e-05 0
0.00019885 4.925e-05 0
0.0001972 5e-05 0
0.000197825 4.9125e-05 0
0.0001968 4.9e-05 0
0.000195775 4.8875e-05 0
0.0001946 5e-05 0
0.00019475 4.875e-05 0
0.000193725 4.8625e-05 0
0.000192 5e-05 0
0.0001927 4.85e-05 0
0.000191675 4.8375e-05 0
0.00019065 4.825e-05 0
0.0001894 5e-05 0
0.000189625 4.8125e-05 0
0.0001886 4.8e-05 0
0.0001868 5e-05 0
0.000187575 4.7875e-05 0
0.00018655 4.775e-05 0
0.000185515 4.8575e-05 0
0.0001842 5e-05 0
0.0001845 4.75e-05 0
0.000185525 4.7625e-05 0
0.000182564 4.829e-05 0
0.0001816 5e-05 0
0.00018245 4.725e-05 0
0.000183475 4.7375e-05 0
0.000181425 4.7125e-05 0
0.000180295 4.82657e-05 0
0.000179 5e-05 0
0.000179375 4.6875e-05 0
0.0001804 4.7e-05 0
0.000178168 4.80619e-05 0
0.0001764 5e-05 0
0.000177325 4.6625e-05 0
0.00017835 4.675e-05 0
0.000176428 4.76631e-05 0
0.0001763 4.65e-05 0
0.0001738 5e-05 0
0.0001751 4.84164e-05 0
0.000175275 4.6375e-05 0
0.000174025 4.75632e-05 0
0.0001712 5e-05 0
0.000172615 4.78449e-05 0
0.0001722 4.6e-05 0
0.000173225 4.6125e-05 0
0.00017015 4.575e-05 0
0.000171243 4.7381e-05 0
0.000169554 4.79999e-05 0
0.0001686 5e-05 0
0.000167507 4.79751e-05 0
0.000168498 4.64861e-05 0
0.000166 5e-05 0
0.00016558 4.71459e-05 0
0.000167135 4.62887e-05 0
0.0001681 4.55e-05 0
0.00016605 4.525e-05 0
0.000167075 4.5375e-05 0
0.000164059 4.61599e-05 0
0.00016394 4.79552e-05 0
0.000162881 4.6615e-05 0
0.000162975 4.4875e-05 0
0.000165025 4.5125e-05 0
0.000164 4.5e-05 0
0.000161754 4.58641e-05 0
0.000161722 4.78101e-05 0
0.000159956 4.58294e-05 0
0.000160925 4.4625e-05 0
0.00016195 4.475e-05 0
0.000157667 4.60322e-05 0
0.000158875 4.4375e-05 0
0.000159194 4.80155e-05 0
0.0001599 4.45e-05 0
0.00015785 4.425e-05 0
0.000155808 4.56757e-05 0
0.000155647 4.76701e-05 0
0.000154059 4.66642e-05 0
0.000153756 4.50083e-05 0
0.000154839 4.50446e-05 0
0.000156825 4.4125e-05 0
0.000151954 4.80508e-05 0
0.000154052 4.8477e-05 0
0.000153 5e-05 0
0.000154775 4.3875e-05 0
0.000152142 4.56625e-05 0
0.000152821 4.45753e-05 0
0.00015375 4.375e-05 0
0.0001504 5e-05 0
0.000149644 4.85168e-05 0
0.000151787 4.43178e-05 0
0.000152725 4.3625e-05 0
0.000150675 4.3375e-05 0
0.0001517 4.35e-05 0
0.000148119 4.50887e-05 0
0.000148072 4.75757e-05 0
0.000146584 4.63516e-05 0
0.000150008 4.6396e-05 0
0.000149351 4.4543e-05 0
0.00015061 4.46252e-05 0
0.0001476 4.3e-05 0
0.000148625 4.3125e-05 0
0.000146492 4.82975e-05 0
0.000144888 4.73562e-05 0
0.000146676 4.44259e-05 0
0.000145255 4.53656e-05 0
0.000145652 4.38669e-05 0
0.000141401 4.79821e-05 0
0.0001426 5e-05 0
0.00014 5e-05 0
0.000144374 4.38862e-05 0
0.00014555 4.275e-05 0
0.0001435 4.25e-05 0
0.000144525 4.2625e-05 0
0.000142746 4.38121e-05 0
0.000141288 4.43191e-05 0
0.000141707 4.32778e-05 0
0.00013921 4.38992e-05 0
0.000140355 4.5932e-05 0
0.000138302 4.5922e-05 0
0.000142912 4.58869e-05 0
0.000140592 4.30037e-05 0
0.00014145 4.225e-05 0
0.000136458 4.5869e-05 0
0.000137106 4.4063e-05 0
0.0001394 4.2e-05 0
0.000138259 4.28915e-05 0
0.000137484 4.77094e-05 0
0.000139166 4.78902e-05 0
0.00013586 4.78984e-05 0
0.000133449 4.78649e-05 0
0.000134717 4.61848e-05 0
0.000137256 4.25134e-05 0
0.000135323 4.24541e-05 0
0.000136325 4.1625e-05 0
0.000136122 4.2876e-05 0
0.000131206 4.47284e-05 0
0.000133168 4.56738e-05 0
0.000131773 4.65243e-05 0
0.000134756 4.40343e-05 0
0.000132747 4.36463e-05 0
0.000133483 4.26786e-05 0
0.000131081 4.1867e-05 0
0.000132382 4.22815e-05 0
0.000131507 4.3122e-05 0
0.000131059 4.80123e-05 0
0.00013325 4.125e-05 0
0.00012915 4.075e-05 0
0.00012982 4.18199e-05 0
0.000128915 4.26216e-05 0
0.000126366 4.47574e-05 0
0.000127331 4.30908e-05 0
0.000128781 4.44872e-05 0
0.000125336 4.28376e-05 0
0.000130218 4.31077e-05 0
0.000127894 4.16344e-05 0
0.000124774 4.69608e-05 0
0.000127668 4.64148e-05 0
0.000126591 4.8331e-05 0
0.000126722 4.18415e-05 0
0.000125768 4.11931e-05 0
0.000124326 4.13546e-05 0
0.00012505 4.025e-05 0
0.000122408 4.50118e-05 0
0.000120276 4.47432e-05 0
0.00012139 4.32235e-05 0
0.000124336 4.44132e-05 0
0.000123056 4.27595e-05 0
0.000122977 4.09049e-05 0
0.00012185 4.69217e-05 0
0.000122676 4.85947e-05 0
0.000120525 4.86094e-05 0
0.000121479 4.13153e-05 0
0.000119547 4.24221e-05 0
0.000120249 4.07448e-05 0
0.000119925 3.9625e-05 0
0.000119346 4.06114e-05 0
0.000117479 4.47279e-05 0
0.000114726 4.45259e-05 0
0.00011571 4.27814e-05 0
0.000119443 4.66611e-05 0
0.000117447 4.21596e-05 0
0.000118421 4.0752e-05 0
0.000117409 4.04437e-05 0
0.000116775 4.70073e-05 0
0.0001179 4.855e-05 0
0.000115473 4.84802e-05 0
0.00011685 3.925e-05 0
0.000117875 3.9375e-05 0
0.000115454 4.00551e-05 0
0.0001148 3.9e-05 0
0.000115825 3.9125e-05 0
0.000111704 4.23398e-05 0
0.000113786 4.26731e-05 0
0.000112589 4.43871e-05 0
0.000113234 4.06671e-05 0
0.000114754 4.13371e-05 0
0.0001106 4.42326e-05 0
0.000109703 4.24261e-05 0
0.00011275 3.875e-05 0
0.000113775 3.8875e-05 0
0.000110211 4.80875e-05 0
0.000108244 4.71951e-05 0
0.000109312 4.58413e-05 0
0.000111755 3.99116e-05 0
0.00010944 3.92972e-05 0
0.000110415 4.05876e-05 0
0.000108839 4.07536e-05 0
0.000106472 4.76905e-05 0
0.000107274 4.57868e-05 0
0.000108011 3.92415e-05 0
0.000106885 4.04365e-05 0
0.000106625 3.88708e-05 0
0.000105286 4.19254e-05 0
0.000105055 3.95469e-05 0
0.000104215 4.39764e-05 0
0.000106346 4.40629e-05 0
0.000100945 4.51249e-05 0
0.000102825 4.5614e-05 0
0.000101189 4.68452e-05 0
0.000107625 3.8125e-05 0
0.000105575 3.7875e-05 0
0.0001066 3.8e-05 0
0.000103352 4.76905e-05 0
0.000101803 4.8465e-05 0
0.000103685 3.89398e-05 0
0.00010245 3.8825e-05 0
0.000103525 3.7625e-05 0
0.000101092 3.99779e-05 0
0.000101267 3.82619e-05 0
0.000101382 4.2025e-05 0
0.000103187 4.05286e-05 0
0.000103359 4.24605e-05 0
9.87383e-05 4.5447e-05 0
9.99411e-05 4.35161e-05 0
9.744e-05 4.33145e-05 0
0.00010045 3.725e-05 0
0.000101475 3.7375e-05 0
9.70845e-05 4.65215e-05 0
9.52614e-05 4.67664e-05 0
9.61768e-05 4.49944e-05 0
9.9729e-05 3.87704e-05 0
9.78901e-05 3.9598e-05 0
9.85823e-05 3.81492e-05 0
9.62289e-05 3.93709e-05 0
9.74259e-05 3.81279e-05 0
9.7375e-05 3.6875e-05 0
9.63045e-05 3.76631e-05 0
9.58e-05 5e-05 0
9.32e-05 5e-05 0
9.47542e-05 4.8457e-05 0
9.49675e-05 3.85246e-05 0
9.36214e-05 3.89472e-05 0
9.40006e-05 3.74906e-05 0
9.66411e-05 4.12573e-05 0
9.44241e-05 4.07079e-05 0
9.03569e-05 4.24993e-05 0
9.21701e-05 4.02409e-05 0
9.27439e-05 4.27744e-05 0
8.89795e-05 4.09067e-05 0
9.03071e-05 4.0248e-05 0
9.25447e-05 3.77721e-05 0
9.3275e-05 3.6375e-05 0
9.07708e-05 3.87127e-05 0
9.11303e-05 3.70839e-05 0
9.11933e-05 4.55145e-05 0
9.30678e-05 4.73279e-05 0
9.11886e-05 4.82603e-05 0
8.87724e-05 3.88076e-05 0
8.99595e-05 3.75116e-05 0
9.02e-05 3.6e-05 0
8.89241e-05 3.6954e-05 0
8.36977e-05 4.59472e-05 0
8.36223e-05 4.83578e-05 0
8.20467e-05 4.74142e-05 0
8.71227e-05 4.03557e-05 0
8.61e-05 3.55e-05 0
8.68368e-05 3.65714e-05 0
8.5484e-05 3.6588e-05 0
8.47735e-05 4.02845e-05 0
8.23121e-05 4.21599e-05 0
8.26582e-05 3.98147e-05 0
8.46943e-05 4.2454e-05 0
8.38832e-05 3.78613e-05 0
8.35569e-05 3.63808e-05 0
8.44098e-05 3.6291e-05 0
8.5075e-05 3.5375e-05 0
8.51465e-05 4.77163e-05 0
8.3025e-05 3.5125e-05 0
8.22824e-05 3.68659e-05 0
8.1446e-05 3.57362e-05 0
8.05884e-05 3.71794e-05 0
7.53471e-05 4.77524e-05 0
7.38313e-05 4.73927e-05 0
7.39102e-05 4.61526e-05 0
7.9826e-05 3.58588e-05 0
7.88607e-05 3.76287e-05 0
7.81733e-05 3.57987e-05 0
8.16783e-05 3.84471e-05 0
8.07975e-05 4.04095e-05 0
7.52138e-05 4.04775e-05 0
7.67682e-05 4.17043e-05 0
7.49617e-05 4.21803e-05 0
7.52903e-05 3.84008e-05 0
7.38293e-05 3.93136e-05 0
[...]
CELL_DATA 58684
VECTORS velocity DOUBLE
74.1424 0.337311 0
86.7991 7.95414e-05 0
86.7739 7.39147e-05 0
86.8023 0.0006962 0
86.7755 -0.0012897 0
86.8076 -0.00261414 0
86.7815 0.00312412 0
77.871 -0.00214436 0
77.8818 -0.0240113 0
77.9758 -0.00330076 0
78.0805 -0.00597248 0
78.1376 -0.40868 0
77.9098 -0.109754 0
78.2149 -0.134774 0
77.8907 -0.185432 0
78.4041 -0.171037 0
77.8715 -0.112245 0
78.7507 -0.157304 0
77.9344 -0.317824 0
79.2471 -0.112509 0
77.8848 -0.114826 0
78.7218 -0.368723 0
85.202 -2.16387 0
77.8587 0.012004 0
77.8589 0.0512822 0
77.8584 0.0250032 0
77.8898 0.141584 0
77.8815 0.0229692 0
77.8866 0.188925 0
77.9737 0.0493009 0
77.8814 0.145238 0
77.933 0.0327594 0
77.8435 0.144626 0
78.2823 0.163135 0
77.9965 1.13222 0
78.1444 0.0683425 0
77.8936 0.177982 0
78.3561 0.354521 0
86.8092 -0.00249187 0
86.8126 -3.12547e-05 0
86.8203 -0.00343002 0
86.8207 -0.00459579 0
86.8243 0.000239308 0
86.8317 -0.00303057 0
86.8332 -0.00663907 0
86.8337 -0.00511871 0
86.8373 -0.000208819 0
86.8435 -0.0061547 0
86.8431 -0.00644422 0
86.8454 7.49299e-05 0
86.8535 -0.00644587 0
86.8536 -0.00882875 0
86.854 -0.00641382 0
86.8567 -0.000567697 0
86.8621 -0.0081157 0
86.8616 -0.00749436 0
86.8632 -0.000372138 0
86.8718 -0.0102318 0
86.8713 -0.0112781 0
86.8721 -0.00683562 0
86.8761 -0.000316583 0
86.8802 -0.0146888 0
86.8821 -0.00968287 0
86.8892 -0.00133972 0
86.8921 -0.0162269 0
86.8916 -0.0157993 0
86.8954 -0.0109974 0
86.8989 -0.000921269 0
86.9008 -0.0178015 0
86.9049 -0.0117598 0
86.9077 -0.000619191 0
86.9118 -0.019968 0
86.9157 -0.0152433 0
86.9218 -0.0229591 0
86.9216 -0.000696788 0
86.9268 -0.0172418 0
86.9293 -0.0107386 0
86.9343 -0.00150641 0
86.9391 -0.024947 0
86.9514 -0.0189227 0
86.9412 -0.0204875 0
86.9507 -0.00202444 0
86.9563 -0.0132374 0
86.9532 -0.0249216 0
86.9724 -0.0167391 0
86.9683 -0.0220919 0
86.9703 -0.0291281 0
86.9784 -0.0366004 0
86.9902 -0.0230818 0
87.003 -0.0322226 0
86.9853 -0.0283552 0
86.9978 -0.0409732 0
87.007 -0.0319275 0
87.007 -0.0306181 0
87.0143 -0.0429485 0
87.0365 -0.0382524 0
87.0197 -0.0340997 0
87.0308 -0.0460522 0
87.0456 -0.0517718 0
87.0446 -0.0379584 0
87.0654 -0.0482538 0
87.0498 -0.0425075 0
87.065 -0.0158746 0
87.0719 -0.0525803 0
87.0866 -0.0489152 0
87.0812 -0.0550376 0
87.0827 -0.0136686 0
87.0932 -0.0582084 0
87.1068 -0.0658179 0
87.1143 -0.0370161 0
87.1124 -0.0392368 0
87.1014 -0.053643 0
87.131 -0.0702939 0
87.1245 -0.0292924 0
87.1553 -0.063294 0
87.1402 -0.0410048 0
87.1641 -0.00268117 0
87.1633 -0.0714471 0
87.176 -0.0842482 0
87.2025 -0.0729746 0
87.2147 -0.0564897 0
87.1745 -0.044041 0
87.2105 -0.0838645 0
87.2359 -0.0570815 0
87.2359 -0.0885021 0
87.2093 -0.0331983 0
87.2455 -0.0795252 0
87.2514 -0.0299293 0
87.2585 -0.0925097 0
87.283 -0.106869 0
87.306 -0.0641421 0
87.3033 -0.0897327 0
87.2737 -0.0418831 0
87.3389 -0.115517 0
87.2833 -0.0331448 0
87.3211 -0.114914 0
87.3783 -0.128099 0
87.3867 -0.0903022 0
87.4008 -0.112175 0
87.3666 -0.107264 0
87.3907 -0.117338 0
87.3518 -0.051397 0
87.4298 -0.135003 0
87.4538 -0.148443 0
87.4771 -0.0980513 0
87.4041 -0.0738178 0
87.4455 -0.127526 0
87.4658 -0.150612 0
87.4228 -0.0302232 0
87.5281 -0.160203 0
87.5415 -0.178911 0
87.5713 -0.110158 0
87.49 -0.0976605 0
87.5506 -0.151323 0
87.5712 -0.177964 0
87.5069 -0.0320394 0
87.5893 -0.206088 0
87.6349 -0.220812 0
87.6414 -0.155989 0
87.6407 -0.180232 0
87.6844 -0.164314 0
87.6711 -0.228552 0
87.6604 -0.0606629 0
87.6797 -0.215063 0
87.746 -0.218709 0
87.7118 -0.0703629 0
87.8077 -0.258802 0
87.8305 -0.238855 0
87.809 -0.151564 0
87.8629 -0.116171 0
87.8131 -0.265029 0
87.849 -0.29222 0
87.8343 -0.0598446 0
87.9134 -0.293876 0
87.9589 -0.301702 0
87.8801 -0.216773 0
87.9362 -0.135024 0
87.9708 -0.18011 0
87.9906 -0.345381 0
88.0122 -0.116301 0
88.0483 -0.320695 0
88.0767 -0.314517 0
88.1026 -0.367641 0
88.0407 -0.00463404 0
88.1953 -0.365504 0
88.0821 -0.282772 0
88.1928 -0.254435 0
88.2593 -0.296894 0
88.2428 -0.404003 0
88.2939 -0.407831 0
88.1523 -0.0918337 0
88.3269 -0.394381 0
88.3559 -0.455147 0
88.367 -0.43809 0
88.4366 -0.100341 0
88.3467 -0.34712 0
88.515 -0.501882 0
88.5509 -0.378992 0
88.4738 -0.318945 0
88.5678 -0.528961 0
88.5567 -0.523739 0
88.4279 -0.0902558 0
88.6517 -0.579391 0
88.6858 -0.543727 0
88.835 -0.105499 0
88.7774 -0.595517 0
88.6286 -0.417862 0
88.8613 -0.379159 0
88.9247 -0.487883 0
88.8257 -0.539798 0
88.8551 -0.644142 0
88.8878 -0.230915 0
89.0144 -0.618746 0
88.9772 -0.714578 0
89.1551 -0.722867 0
89.0874 -0.0112053 0
89.1015 -0.595616 0
89.1666 -0.747089 0
88.9916 -0.184687 0
89.2274 -0.785558 0
89.3019 -0.451815 0
89.2724 -0.821439 0
89.4464 -0.252063 0
89.426 -0.705135 0
89.3987 -0.83072 0
89.3138 -0.128305 0
89.5353 -0.85661 0
89.7032 -0.832803 0
89.5482 -0.710721 0
89.5845 -0.42807 0
89.739 -0.956807 0
89.7235 -0.37476 0
89.8669 -0.0639949 0
89.6763 -0.752387 0
89.8486 -0.945262 0
89.9354 -1.01599 0
89.9344 -0.317095 0
90.0657 -0.874739 0
90.2186 -0.957378 0
89.9986 -0.106979 0
90.3583 -0.929547 0
90.2815 -1.03972 0
90.1334 -0.769806 0
90.1771 -0.369959 0
90.289 -0.431949 0
90.428 -1.0429 0
90.3242 -0.00636305 0
90.5327 -1.1126 0
90.6627 -1.05364 0
90.6209 -1.11035 0
90.5604 -0.238701 0
90.716 -0.902681 0
90.9611 -0.912736 0
90.5191 -0.00447023 0
91.0539 -1.08521 0
91.2212 -0.918496 0
90.871 -0.666013 0
90.685 -0.27283 0
91.2212 -1.03951 0
90.8479 -0.338409 0
90.6371 -0.0145234 0
91.1413 -0.694691 0
91.4755 -0.940926 0
91.637 -0.876275 0
90.8123 -0.0670595 0
91.5782 -0.590819 0
91.7216 -0.780509 0
90.6652 0.0352497 0
91.8584 -0.766623 0
92.0407 -0.635901 0
91.6579 -0.211086 0
90.4095 0.0102229 0
92.1926 -0.411111 0
91.3213 0.213221 0
91.551 0.322037 0
92.0633 -0.261614 0
91.8398 -0.00409542 0
92.5135 -0.0228923 0
90.5281 0.378957 0
92.4995 -0.124997 0
92.0457 0.440972 0
92.6921 0.516935 0
90.4474 0.110549 0
92.6418 1.21641 0
92.412 1.4451 0
89.0626 0.198852 0
92.8676 0.909957 0
92.7632 1.38583 0
90.419 1.48526 0
90.1766 0.709665 0
91.7078 1.12916 0
92.6589 1.91729 0
89.3132 0.331691 0
92.165 2.80369 0
92.8361 2.15714 0
92.8489 2.38351 0
88.5461 1.41609 0
91.1894 2.93022 0
92.2164 3.19008 0
88.53 0.232917 0
92.0319 3.68984 0
91.682 3.56936 0
90.7161 5.1893 0
86.2446 0.396854 0
91.8487 4.89 0
89.8656 3.52817 0
88.0026 1.56559 0
87.6146 2.98394 0
91.6151 5.39419 0
90.4834 5.84174 0
86.6822 0.60865 0
90.5538 6.66544 0
86.783 0.00242019 0
86.786 2.52296e-05 0
86.7926 0.00274437 0
86.7926 0.00446907 0
86.7957 -0.00026711 0
86.8029 0.00290742 0
86.8041 0.0062973 0
86.8046 0.00481263 0
86.808 0.000205603 0
86.8136 0.00573738 0
86.8133 0.00548354 0
86.815 -0.000108837 0
86.8227 0.00625298 0
86.8226 0.00850684 0
86.8229 0.00618128 0
86.8254 0.0005402 0
86.8308 0.00817955 0
86.8302 0.00766208 0
86.8318 0.000370978 0
86.8403 0.00984812 0
86.8399 0.0110447 0
86.8481 0.0145048 0
86.8407 0.00666442 0
86.8512 0.00818195 0
86.8587 0.0136192 0
86.8506 0.00980569 0
86.8605 0.0155469 0
86.8643 0.0109565 0
86.8704 0.0173497 0
86.8621 0.00968419 0
86.8738 0.0120851 0
86.8815 0.0197045 0
86.8734 0.00984496 0
86.8913 0.0231306 0
86.8916 0.0232702 0
86.895 0.0162967 0
86.8854 0.0114681 0
86.8962 0.0175633 0
86.9067 0.0166867 0
86.8988 0.0109959 0
86.9173 0.0301167 0
86.9126 0.0125395 0
86.922 0.0192614 0
86.9125 0.0152122 0
86.924 0.0252948 0
86.9417 0.0293904 0
86.9432 0.0170579 0
86.9365 0.0271425 0
86.9533 0.0307925 0
86.954 0.0359588 0
86.967 0.0177841 0
86.9617 0.0232445 0
86.9746 0.0324162 0
86.9864 0.0454478 0
86.9855 0.0219143 0
86.9936 0.0346788 0
87.0022 0.0478696 0
87.0048 0.0270621 0
86.9911 0.034168 0
87.0183 0.0523488 0
87.018 0.0516265 0
87.0197 0.032398 0
87.0284 0.0231932 0
87.038 0.0481002 0
86.9938 0.0137287 0
87.0541 0.0552661 0
87.0802 0.0670538 0
87.0639 0.0563446 0
87.0492 0.0328073 0
87.0883 0.0679024 0
87.0939 0.0593074 0
87.1001 0.0295003 0
87.0761 0.0546289 0
87.11 0.0628278 0
87.1238 0.0717727 0
87.0784 0.0167785 0
87.1115 0.0518951 0
87.1522 0.084115 0
87.1178 0.0421585 0
87.1606 0.0728246 0
87.1854 0.0880922 0
87.16 0.0645664 0
87.1724 0.0265486 0
87.1914 0.0779798 0
87.208 0.0892365 0
87.1829 0.0218082 0
87.2286 0.0986374 0
87.1935 0.0728259 0
87.2433 0.0810876 0
87.2074 0.0568602 0
87.2566 0.106908 0
87.3062 0.128336 0
87.2597 0.0328061 0
87.264 0.0877514 0
87.33 0.135695 0
87.3031 0.0982591 0
87.2509 0.0409747 0
87.3424 0.128249 0
87.3599 0.133775 0
87.3131 0.0332684 0
87.3531 0.0583694 0
87.3848 0.117486 0
87.4045 0.1557 0
87.3345 0.0822253 0
87.4302 0.149438 0
87.4489 0.161264 0
87.4391 0.0546631 0
87.4234 0.0981691 0
87.4905 0.179532 0
87.4823 0.152455 0
87.3858 0.0492572 0
87.505 0.171553 0
87.5484 0.184069 0
87.5159 0.0723145 0
87.5174 0.157371 0
87.6033 0.217894 0
87.5853 0.167697 0
87.4655 0.0539068 0
87.6236 0.204278 0
87.6845 0.246972 0
87.5669 0.0706105 0
87.6671 0.196841 0
87.6401 0.0917907 0
87.7046 0.205265 0
87.6213 0.116994 0
87.739 0.261024 0
87.7893 0.26043 0
87.6886 0.0708421 0
87.7779 0.254301 0
87.8506 0.292972 0
87.7933 0.0751629 0
87.748 0.214502 0
87.8353 0.249226 0
87.8939 0.295446 0
87.771 0.0452675 0
87.9006 0.269192 0
87.9984 0.348519 0
87.9727 0.291428 0
87.9029 0.0885308 0
88.0409 0.303232 0
87.86 0.114067 0
87.9012 0.257903 0
88.0355 0.336723 0
88.1386 0.379903 0
88.1463 0.388778 0
87.8749 0.00759565 0
88.2395 0.441742 0
88.2493 0.430076 0
88.2656 0.378025 0
88.1961 0.18647 0
88.2953 0.201042 0
88.2847 0.423436 0
88.057 0.115681 0
88.4001 0.476028 0
88.3885 0.467121 0
88.3918 0.419656 0
88.2785 0.121416 0
88.4689 0.465544 0
88.5923 0.579199 0
88.4388 0.217371 0
88.3922 0.231421 0
88.5451 0.467924 0
88.7082 0.600031 0
88.3142 0.144061 0
88.7466 0.6344 0
88.7818 0.617018 0
88.5849 0.121122 0
88.9161 0.703658 0
88.9477 0.675242 0
89.0062 0.580565 0
88.7848 0.256911 0
88.7594 0.290904 0
88.9278 0.65165 0
88.6646 0.189677 0
89.0908 0.775189 0
89.1406 0.731211 0
89.1338 0.673081 0
88.8659 0.102729 0
89.3064 0.792551 0
89.322 0.809105 0
89.1589 0.455217 0
89.4072 0.636806 0
89.1724 0.370304 0
89.3735 0.775943 0
89.0617 0.235233 0
89.5281 0.901856 0
89.5513 0.871775 0
89.0957 0.18663 0
89.6148 0.801965 0
89.7958 0.92287 0
89.7093 0.901924 0
89.5808 0.210495 0
90.0003 0.964169 0
90.0439 1.02876 0
89.547 0.625899 0
89.9283 0.763013 0
89.5994 0.381376 0
90.2335 1.08123 0
89.7613 0.117501 0
90.2949 1.05008 0
90.2866 0.994683 0
89.5854 0.0939238 0
90.2147 0.900035 0
90.6037 1.06199 0
90.6941 1.06993 0
90.1495 0.268318 0
90.7652 1.04282 0
90.8137 1.11158 0
90.1396 0.679846 0
90.8143 0.731183 0
90.3016 0.260192 0
90.9778 1.10813 0
90.3228 0.0962692 0
91.121 1.03229 0
91.2083 1.01576 0
90.1567 0.0688163 0
91.0258 0.839303 0
91.493 0.942541 0
91.6533 0.879126 0
90.5781 0.167203 0
91.4896 0.822802 0
91.7893 0.827938 0
91.1171 0.713483 0
91.5734 0.402693 0
90.6552 0.103076 0
91.5586 0.741009 0
90.6631 0.0368959 0
92.0322 0.720574 0
92.1175 0.574693 0
90.5645 0.0370285 0
91.8193 0.269235 0
92.2646 0.291892 0
92.4513 0.157188 0
90.6487 -0.102021 0
92.5401 -0.0459165 0
92.5842 -0.180985 0
90.7931 -0.277235 0
92.5992 -0.212559 0
91.7988 -0.654886 0
91.075 -0.103942 0
90.884 -0.0075034 0
92.7328 -0.503331 0
92.492 -0.894958 0
92.9198 -1.07363 0
90.5384 -0.00659915 0
92.2006 -1.34243 0
92.9188 -1.80606 0
90.4928 -0.126614 0
92.0354 -1.30881 0
92.894 -2.34375 0
91.4766 -1.77245 0
90.4654 -0.664147 0
92.7023 -2.69104 0
92.5635 -2.98337 0
91.4381 -1.12458 0
90.8794 -3.146 0
88.8558 -2.59405 0
92.2045 -3.01948 0
89.2715 -0.407142 0
92.19 -3.96841 0
89.6317 7.26422 0
90.3603 6.49341 0
84.981 1.92188 0
89.5276 7.22123 0
87.2983 6.61083 0
88.8695 7.85255 0
85.5713 0.755294 0
87.8939 8.05587 0
86.7255 7.92997 0
84.3252 0.960785 0
86.7985 8.45498 0
92.1004 -4.38616 0
89.5157 -0.253192 0
91.8354 -4.72994 0
90.6006 -5.12771 0
90.0486 -4.41505 0
88.6238 -0.268541 0
90.8417 -5.71577 0
85.501 7.72548 0
90.1923 -6.98978 0
88.3732 -1.39877 0
89.8706 -6.75624 0
89.0091 -7.71907 0
83.1729 2.36014 0
88.5742 -7.57565 0
89.7834 -4.22815 0
89.0644 -6.86392 0
87.2091 -5.08184 0
86.273 -0.835995 0
88.1296 -6.97164 0
87.3398 -7.38072 0
84.879 8.1522 0
87.4105 -7.39225 0
87.1049 -0.453814 0
86.3841 -7.74522 0
85.8726 -8.44912 0
85.5938 -0.562442 0
84.7861 -8.59406 0
85.2922 -6.30761 0
83.4311 -0.651874 0
83.7772 -8.74656 0
83.8473 -4.85102 0
85.5558 -3.81984 0
84.3195 -7.48799 0
83.2139 -7.83921 0
85.8705 4.3813 0
82.2693 0.528482 0
85.2795 2.93034 0
83.9383 -0.0742483 0
82.6694 -8.50361 0
84.5041 7.72188 0
81.9971 0.383629 0
83.9349 6.56999 0
81.807 -8.36865 0
83.5101 -1.71143 0
81.1024 -6.1106 0
83.927 8.80152 0
80.8873 2.02074 0
83.8276 8.72728 0
81.6164 7.28028 0
81.1745 0.411633 0
82.2454 7.65399 0
81.7075 -6.35648 0
83.0229 -0.472315 0
80.9562 -8.49694 0
80.9751 -8.26472 0
82.6171 8.21993 0
80.7009 7.83807 0
80.4864 0.0411981 0
81.7575 8.09091 0
79.9084 5.07048 0
80.486 2.28283 0
80.037 -8.44637 0
80.9561 -1.09553 0
80.3697 -8.32117 0
79.5764 8.28962 0
79.4144 -7.7174 0
80.0898 -1.07595 0
79.7163 -3.39251 0
78.1577 -7.41425 0
81.1781 -4.09922 0
78.0177 -7.17096 0
79.5906 -0.289897 0
77.105 -6.85155 0
79.2594 2.85986 0
79.8613 0.46053 0
79.1506 6.96114 0
79.2541 0.116816 0
78.9455 8.16721 0
78.6614 7.66565 0
78.9386 0.185437 0
77.9037 6.70979 0
78.7189 0.133543 0
78.4876 -6.40931 0
79.5888 -0.574992 0
79.7108 6.03344 0
77.8963 0.736143 0
77.4582 6.30087 0
76.9905 -6.81236 0
79.7014 -0.229665 0
75.3652 -5.82567 0
77.8802 -0.441363 0
76.1852 -5.7331 0
78.5343 2.54587 0
77.8553 0.120802 0
79.2081 -5.21692 0
77.8571 -0.113097 0
75.4887 -5.39743 0
76.868 5.68537 0
76.892 -4.26062 0
77.8731 -0.242631 0
75.7933 -4.62382 0
77.8947 3.13839 0
75.7499 1.99233 0
76.3706 4.91602 0
77.6292 -0.984591 0
75.6378 -5.12408 0
77.8143 0.402774 0
76.2892 6.63328 0
77.6689 -2.37553 0
77.8573 -0.0843396 0
75.3066 -4.62198 0
76.0198 5.92653 0
77.8302 0.717325 0
75.974 4.63243 0
75.6967 4.572 0
77.8077 0.381567 0
74.9008 4.07168 0
74.453 -4.15209 0
77.84 -0.295148 0
74.1522 -4.14425 0
76.53 -1.97514 0
77.8536 -0.200864 0
73.5275 -2.82504 0
74.9609 5.06557 0
77.754 0.620611 0
76.2047 3.24564 0
74.1382 -2.56604 0
77.7496 -0.312269 0
73.4897 -2.33722 0
73.8481 3.72803 0
77.7592 0.265182 0
74.2483 3.51103 0
74.5473 2.86483 0
77.8554 0.0347338 0
73.7142 3.05121 0
74.8333 -1.51093 0
77.6932 -0.54056 0
74.1235 -1.33142 0
72.9486 -0.847536 0
77.0252 -0.923737 0
72.9983 -0.717692 0
76.7288 0.958883 0
77.7905 0.0784595 0
75.8198 2.43096 0
73.4944 2.45802 0
77.6557 0.0591667 0
73.0714 1.55233 0
77.3735 -0.235405 0
77.8403 -0.112404 0
72.9968 -0.236098 0
73.521 -0.0928074 0
77.811 -0.0660511 0
75.7385 0.307491 0
73.688 0.526224 0
77.8245 -0.0620283 0
77.0858 -5.64775 0
77.9114 -0.432578 0
77.8433 0.133184 0
77.9164 6.87089 0
78.857 -7.72333 0
81.9056 -0.942906 0
80.32 0.994759 0
81.5227 8.59622 0
77.7931 0.280018 0
74.4098 4.84719 0
73.8895 -2.83291 0
77.8055 -0.202 0
77.8609 -0.573381 0
77.4722 -3.66374 0
77.9214 0.801471 0
77.9041 0.199374 0
77.8022 -0.000430935 0
73.565 2.05086 0
79.2128 0.465693 0
78.3227 1.57419 0
78.6428 -1.3721 0
80.1355 -0.689623 0
85.6813 -1.26596 0
85.2619 -8.43874 0
87.1496 8.05274 0
85.2172 0.467758 0
77.6915 1.66271 0
79.4934 7.98442 0
78.426 -7.06873 0
79.1579 -2.31158 0
76.8354 -1.45864 0
74.5202 -0.220669 0
76.0568 5.82086 0
78.0081 1.88923 0
77.8486 -1.7883 0
74.6788 -4.62731 0
91.5847 -5.36676 0
88.308 -0.659915 0
87.8837 0.789716 0
92.0272 4.46944 0
77.9163 -0.814947 0
77.8764 -0.0442312 0
77.8639 0.148557 0
78.868 0.755934 0
82.9653 0.734035 0
82.5972 4.0961 0
81.0721 -1.98579 0
84.1543 -1.74078 0
81.5197 4.8877 0
84.4392 8.2846 0
83.2721 -8.66385 0
82.4072 -1.91591 0
86.4491 1.6064 0
87.5329 5.01288 0
86.0969 -2.78324 0
87.2457 -0.0422835 0
90.4379 -0.253559 0
92.881 -1.32017 0
92.725 0.528304 0
89.626 0.0285707 0
90.6286 0.00279317 0
92.1591 0.555613 0
91.9397 -0.540368 0
90.7666 0.0403341 0
78.9296 -1.44584 0
78.3911 -0.573737 0
78.303 1.23607 0
79.0969 0.948759 0
78.1483 1.2249 0
77.8723 0.240086 0
77.8542 -0.107231 0
78.0779 -1.12601 0
89.3133 0.952893 0
90.5468 1.88144 0
89.6368 -1.14478 0
89.8468 -0.1706 0
75.8718 -0.958877 0
77.8292 -0.155636 0
77.4169 -0.439803 0
77.843 -0.374249 0
77.8415 0.20577 0
77.8272 0.967406 0
91.2792 0.961289 0
90.4546 0.150852 0
90.5856 -0.00407166 0
91.0182 -1.04088 0
81.5342 -0.0400001 0
80.7765 -2.82068 0
81.8332 1.80135 0
80.5446 0.447578 0
77.7196 4.03965 0
77.2024 7.30621 0
76.9555 -6.2521 0
78.1922 -3.22307 0
78.6938 -2.10885 0
77.4459 -2.22838 0
77.8066 4.63252 0
78.1303 2.22337 0
90.7724 0.0530489 0
90.4991 0.144732 0
90.6857 -0.05154 0
91.6613 0.0832319 0
79.6244 -5.41489 0
80.7037 -5.25159 0
80.2948 4.63334 0
80.8209 8.51637 0
78.9721 -3.97462 0
80.1385 -2.31094 0
79.972 3.11321 0
79.1555 1.53476 0
90.5396 1.12791 0
89.9808 0.139374 0
90.2046 -0.0106391 0
90.1338 -1.01479 0
77.2382 1.01343 0
77.8351 0.0300319 0
90.6515 -0.0537868 0
91.2984 -0.338809 0
91.0104 0.237818 0
90.4933 0.0368491 0
78.7402 -0.95539 0
78.2765 -1.33094 0
79.0372 1.74002 0
78.1687 0.735693 0
77.8823 -0.146871 0
78.0964 -0.698022 0
77.9347 0.315433 0
77.8577 0.136427 0
74.0005 1.71119 0
76.8697 1.52331 0
86.8525 -3.14495 0
90.1843 -6.33731 0
91.1429 5.7901 0
86.5646 2.27003 0
76.7072 -2.30952 0
74.6326 -2.896 0
89.3368 0.15332 0
89.611 0.868582 0
88.6636 0.0753044 0
89.2743 0.829745 0
89.6287 -0.847301 0
89.4601 -0.13875 0
89.045 -0.696024 0
88.9514 -0.013276 0
90.3659 -0.210054 0
90.4892 -0.606648 0
90.3346 0.381988 0
90.0964 0.00722991 0
77.8425 0.179751 0
77.6364 0.538495 0
76.3667 0.452261 0
74.0956 0.844792 0
77.7622 -0.249137 0
77.8284 -0.170203 0
77.3186 0.275214 0
77.2403 -0.749011 0
92.7016 -2.7442 0
89.5606 -1.74877 0
90.5402 2.22093 0
92.8656 1.61718 0
77.9889 -0.0639348 0
78.0792 -0.365909 0
77.8796 0.0519104 0
78.247 0.260822 0
89.7984 -0.20184 0
89.8243 -0.524012 0
89.8432 0.349626 0
89.4659 0.113442 0
88.4922 0.167628 0
88.6741 0.524851 0
88.7022 -0.614561 0
88.5806 -0.149547 0
78.3996 -0.898278 0
79.2822 -2.13061 0
78.7372 1.61017 0
78.3764 1.2715 0
79.0465 2.87631 0
77.4991 1.84904 0
78.0415 -1.92081 0
78.68 -2.7885 0
91.1174 -0.54274 0
92.0789 0.279525 0
92.2502 -0.272014 0
91.5393 0.58328 0
77.6284 -1.14711 0
77.7406 -1.36373 0
77.7744 1.08164 0
77.2625 1.30469 0
88.5168 0.547473 0
88.2249 0.165156 0
88.284 -0.102111 0
88.4581 -0.467526 0
84.9703 4.25777 0
86.9644 7.11121 0
86.4579 -8.37502 0
86.0082 -3.33755 0
75.1085 -3.4182 0
77.4382 -3.50838 0
84.595 -3.05507 0
85.2338 -1.0951 0
83.601 0.45249 0
86.8985 3.10079 0
74.6959 4.61663 0
76.6187 2.72833 0
89.1806 -0.0513705 0
89.3588 -0.536562 0
89.2381 0.355183 0
89.1486 0.0962862 0
88.7451 -0.369183 0
88.5226 -1.51307 0
89.0741 2.08535 0
88.0983 0.271713 0
82.9743 1.3932 0
81.2511 0.349469 0
82.3613 -0.334873 0
83.0131 -3.10331 0
90.9725 0.309053 0
91.2613 0.832648 0
91.4193 -0.907057 0
91.2929 -0.0431156 0
82.0139 -3.82301 0
83.1006 -1.83313 0
82.3251 2.70453 0
84.8558 5.97235 0
88.1208 0.336952 0
87.9927 0.0641291 0
88.1629 -0.100363 0
88.1131 -0.351876 0
88.6842 -0.184023 0
88.8396 -0.00870928 0
88.8139 0.100894 0
88.6592 0.432833 0
79.8113 0.496159 0
79.5726 1.30082 0
79.8261 -1.14533 0
80.6574 -0.317132 0
81.3138 2.81991 0
79.725 1.94561 0
79.1112 -2.8296 0
78.2948 -2.85678 0
90.473 -0.48509 0
90.2222 -0.280016 0
90.0407 0.377448 0
90.9795 0.631666 0
79.7065 3.83877 0
80.2135 2.564 0
79.1989 -0.82337 0
79.0343 -0.292679 0
78.8793 0.265221 0
79.5771 0.887309 0
76.4876 -0.87306 0
77.4684 -1.34588 0
92.0689 -3.6441 0
89.6108 -2.06649 0
89.0706 3.74486 0
92.4579 3.70774 0
77.854 -0.865223 0
77.8776 -0.141996 0
77.8144 0.199624 0
77.9275 0.844842 0
78.181 0.0874937 0
78.2007 0.624553 0
78.3459 -0.343785 0
78.4865 -0.0201622 0
75.3373 -0.267738 0
73.0128 0.151265 0
84.9737 3.21444 0
89.0277 2.97037 0
87.7232 -2.50955 0
88.3207 -4.96177 0
77.5057 2.06339 0
77.0747 1.15022 0
77.8556 -0.0250327 0
77.6291 -0.0495337 0
80.2431 6.81875 0
78.1811 4.04962 0
79.8998 -4.28957 0
78.9086 -8.0867 0
77.3234 0.784921 0
77.7497 0.424569 0
90.3708 0.508402 0
90.7221 1.10907 0
90.4271 -1.01326 0
90.3456 -0.197524 0
88.2976 -0.121328 0
88.4982 -0.0815753 0
88.4733 0.0700169 0
88.3814 0.405629 0
92.6259 0.445745 0
91.4751 1.38538 0
91.5348 -0.564332 0
92.7543 -0.702219 0