# vtk DataFile Version 3.0
Unstructured Grid for Triangles
ASCII
DATASET UNSTRUCTURED_GRID
POINTS 29612 DOUBLE
-2.72397e-05 1.23686e-06 0
-2.95789e-05 9.5838e-07 0
-2.77865e-05 -3.1235e-07 0
0.0002024 5e-05 0
0.000203975 4.9875e-05 0
0.000205 5e-05 0
0.000203975 -4.9875e-05 0
0.0002024 -5e-05 0
0.000205 -5e-05 0
0.00020295 4.975e-05 0
0.00020295 -4.975e-05 0
0.000201925 4.9625e-05 0
0.000201925 -4.9625e-05 0
-5.29747e-05 -4.79887e-05 0
-5.5e-05 -5e-05 0
-5.24e-05 -5e-05 0
-5.05983e-05 -4.84325e-05 0
-4.98e-05 -5e-05 0
-4.72e-05 -5e-05 0
-4.83864e-05 -4.87761e-05 0
-4.46e-05 -5e-05 0
-4.59e-05 -4.84239e-05 0
-4.29453e-05 -4.24878e-05 0
-4.47486e-05 -4.20717e-05 0
-4.41829e-05 -4.36609e-05 0
-5.12578e-05 -4.62101e-05 0
-4.93077e-05 -4.53594e-05 0
-5.0706e-05 -4.39006e-05 0
-4.19243e-05 -4.77545e-05 0
-4.40307e-05 -4.71837e-05 0
-4.3691e-05 -4.86724e-05 0
-5.16129e-05 -4.20948e-05 0
-4.95355e-05 -4.15432e-05 0
-5.11646e-05 -4.0128e-05 0
-3.94697e-05 -4.81197e-05 0
-4.06302e-05 -4.55143e-05 0
-5.37257e-05 -3.88197e-05 0
-5.31099e-05 -4.07297e-05 0
-5.23982e-05 -3.88328e-05 0
-3.70063e-05 -4.72956e-05 0
-3.68e-05 -5e-05 0
-3.5308e-05 -4.85302e-05 0
-5.072e-05 -3.7867e-05 0
-4.85506e-05 -3.83975e-05 0
-4.90949e-05 -3.59622e-05 0
-3.37127e-05 -4.84331e-05 0
-3.16e-05 -5e-05 0
-3.26495e-05 -4.7415e-05 0
-5.5e-05 -3.5e-05 0
-5.31201e-05 -3.70361e-05 0
-5.28367e-05 -3.46817e-05 0
-3.63898e-05 -4.48809e-05 0
-3.83315e-05 -4.60336e-05 0
-3.26269e-06 -4.15503e-05 0
-5.99662e-06 -4.09556e-05 0
-5.46944e-06 -4.29488e-05 0
-5.29747e-05 4.79887e-05 0
-5.5e-05 5e-05 0
-5.5e-05 4.75e-05 0
-5.5e-05 4.5e-05 0
-5.34834e-05 4.29171e-05 0
-5.26943e-05 4.42611e-05 0
-5.34026e-05 4.60176e-05 0
-5.31099e-05 4.07297e-05 0
-5.11672e-05 4.01178e-05 0
-5.16129e-05 4.20948e-05 0
-5.24e-05 5e-05 0
-5.05983e-05 4.84325e-05 0
-5.31201e-05 3.70361e-05 0
-5.072e-05 3.7867e-05 0
-5.23982e-05 3.88328e-05 0
-4.8341e-05 4.69132e-05 0
-4.83679e-05 4.87539e-05 0
-5.28367e-05 3.46817e-05 0
-5.5e-05 3.25e-05 0
-5.25657e-05 3.28474e-05 0
-4.98e-05 5e-05 0
-5.30382e-05 3.125e-05 0
-4.19243e-05 4.77545e-05 0
-4.40015e-05 4.7335e-05 0
-4.25917e-05 4.63678e-05 0
-4.35138e-05 2.62661e-05 0
-4.14982e-05 2.74462e-05 0
-4.35654e-05 2.85217e-05 0
-4.59e-05 4.84239e-05 0
-4.36852e-05 4.87027e-05 0
-4.46e-05 5e-05 0
-5.33308e-05 2.92503e-05 0
-5.5e-05 2.75e-05 0
-5.23377e-05 2.76953e-05 0
-4.25282e-05 4.46352e-05 0
-4.09368e-05 4.35728e-05 0
-4.06302e-05 4.55143e-05 0
0.0002009 4.95e-05 0
0.0001998 5e-05 0
0.000199875 4.9375e-05 0
0.00019885 4.925e-05 0
0.0001972 5e-05 0
0.000197825 4.9125e-05 0
0.0001968 4.9e-05 0
0.000195775 4.8875e-05 0
0.0001946 5e-05 0
0.00019475 4.875e-05 0
0.000193725 4.8625e-05 0
0.000192 5e-05 0
0.0001927 4.85e-05 0
0.000191675 4.8375e-05 0
0.00019065 4.825e-05 0
0.0001894 5e-05 0
0.000189625 4.8125e-05 0
0.0001886 4.8e-05 0
0.0001868 5e-05 0
0.000187575 4.7875e-05 0
0.00018655 4.775e-05 0
0.000185515 4.8575e-05 0
0.0001842 5e-05 0
0.0001845 4.75e-05 0
0.000185525 4.7625e-05 0
0.000182564 4.829e-05 0
0.0001816 5e-05 0
0.00018245 4.725e-05 0
0.000183475 4.7375e-05 0
0.000181425 4.7125e-05 0
0.000180295 4.82657e-05 0
0.000179 5e-05 0
0.000179375 4.6875e-05 0
0.0001804 4.7e-05 0
0.000178168 4.80619e-05 0
0.0001764 5e-05 0
0.000177325 4.6625e-05 0
0.00017835 4.675e-05 0
0.000176428 4.76631e-05 0
0.0001763 4.65e-05 0
0.0001738 5e-05 0
0.0001751 4.84164e-05 0
0.000175275 4.6375e-05 0
0.000174025 4.75632e-05 0
0.0001712 5e-05 0
0.000172615 4.78449e-05 0
0.0001722 4.6e-05 0
0.000173225 4.6125e-05 0
0.00017015 4.575e-05 0
0.000171243 4.7381e-05 0
0.000169554 4.79999e-05 0
0.0001686 5e-05 0
0.000167507 4.79751e-05 0
0.000168498 4.64861e-05 0
0.000166 5e-05 0
0.00016558 4.71459e-05 0
0.000167135 4.62887e-05 0
0.0001681 4.55e-05 0
0.00016605 4.525e-05 0
0.000167075 4.5375e-05 0
0.000164059 4.61599e-05 0
0.00016394 4.79552e-05 0
0.000162881 4.6615e-05 0
0.000162975 4.4875e-05 0
0.000165025 4.5125e-05 0
0.000164 4.5e-05 0
0.000161754 4.58641e-05 0
0.000161722 4.78101e-05 0
0.000159956 4.58294e-05 0
0.000160925 4.4625e-05 0
0.00016195 4.475e-05 0
0.000157667 4.60322e-05 0
0.000158875 4.4375e-05 0
0.000159194 4.80155e-05 0
0.0001599 4.45e-05 0
0.00015785 4.425e-05 0
0.000155808 4.56757e-05 0
0.000155647 4.76701e-05 0
0.000154059 4.66642e-05 0
0.000153756 4.50083e-05 0
0.000154839 4.50446e-05 0
0.000156825 4.4125e-05 0
0.000151954 4.80508e-05 0
0.000154052 4.8477e-05 0
0.000153 5e-05 0
0.000154775 4.3875e-05 0
0.000152142 4.56625e-05 0
0.000152821 4.45753e-05 0
0.00015375 4.375e-05 0
0.0001504 5e-05 0
0.000149644 4.85168e-05 0
0.000151787 4.43178e-05 0
0.000152725 4.3625e-05 0
0.000150675 4.3375e-05 0
0.0001517 4.35e-05 0
0.000148119 4.50887e-05 0
0.000148072 4.75757e-05 0
0.000146584 4.63516e-05 0
0.000150008 4.6396e-05 0
0.000149351 4.4543e-05 0
0.00015061 4.46252e-05 0
0.0001476 4.3e-05 0
0.000148625 4.3125e-05 0
0.000146492 4.82975e-05 0
0.000144888 4.73562e-05 0
0.000146676 4.44259e-05 0
0.000145255 4.53656e-05 0
0.000145652 4.38669e-05 0
0.000141401 4.79821e-05 0
0.0001426 5e-05 0
0.00014 5e-05 0
0.000144374 4.38862e-05 0
0.00014555 4.275e-05 0
0.0001435 4.25e-05 0
0.000144525 4.2625e-05 0
0.000142746 4.38121e-05 0
0.000141288 4.43191e-05 0
0.000141707 4.32778e-05 0
0.00013921 4.38992e-05 0
0.000140355 4.5932e-05 0
0.000138302 4.5922e-05 0
0.000142912 4.58869e-05 0
0.000140592 4.30037e-05 0
0.00014145 4.225e-05 0
0.000136458 4.5869e-05 0
0.000137106 4.4063e-05 0
0.0001394 4.2e-05 0
0.000138259 4.28915e-05 0
0.000137484 4.77094e-05 0
0.000139166 4.78902e-05 0
0.00013586 4.78984e-05 0
0.000133449 4.78649e-05 0
0.000134717 4.61848e-05 0
0.000137256 4.25134e-05 0
0.000135323 4.24541e-05 0
0.000136325 4.1625e-05 0
0.000136122 4.2876e-05 0
0.000131206 4.47284e-05 0
0.000133168 4.56738e-05 0
0.000131773 4.65243e-05 0
0.000134756 4.40343e-05 0
0.000132747 4.36463e-05 0
0.000133483 4.26786e-05 0
0.000131081 4.1867e-05 0
0.000132382 4.22815e-05 0
0.000131507 4.3122e-05 0
0.000131059 4.80123e-05 0
0.00013325 4.125e-05 0
0.00012915 4.075e-05 0
0.00012982 4.18199e-05 0
0.000128915 4.26216e-05 0
0.000126366 4.47574e-05 0
0.000127331 4.30908e-05 0
0.000128781 4.44872e-05 0
0.000125336 4.28376e-05 0
0.000130218 4.31077e-05 0
0.000127894 4.16344e-05 0
0.000124774 4.69608e-05 0
0.000127668 4.64148e-05 0
0.000126591 4.8331e-05 0
0.000126722 4.18415e-05 0
0.000125768 4.11931e-05 0
0.000124326 4.13546e-05 0
0.00012505 4.025e-05 0
0.000122408 4.50118e-05 0
0.000120276 4.47432e-05 0
0.00012139 4.32235e-05 0
0.000124336 4.44132e-05 0
0.000123056 4.27595e-05 0
0.000122977 4.09049e-05 0
0.00012185 4.69217e-05 0
0.000122676 4.85947e-05 0
0.000120525 4.86094e-05 0
0.000121479 4.13153e-05 0
0.000119547 4.24221e-05 0
0.000120249 4.07448e-05 0
0.000119925 3.9625e-05 0
0.000119346 4.06114e-05 0
0.000117479 4.47279e-05 0
0.000114726 4.45259e-05 0
0.00011571 4.27814e-05 0
0.000119443 4.66611e-05 0
0.000117447 4.21596e-05 0
0.000118421 4.0752e-05 0
0.000117409 4.04437e-05 0
0.000116775 4.70073e-05 0
0.0001179 4.855e-05 0
0.000115473 4.84802e-05 0
0.00011685 3.925e-05 0
0.000117875 3.9375e-05 0
0.000115454 4.00551e-05 0
0.0001148 3.9e-05 0
0.000115825 3.9125e-05 0
0.000111704 4.23398e-05 0
0.000113786 4.26731e-05 0
0.000112589 4.43871e-05 0
0.000113234 4.06671e-05 0
0.000114754 4.13371e-05 0
0.0001106 4.42326e-05 0
0.000109703 4.24261e-05 0
0.00011275 3.875e-05 0
0.000113775 3.8875e-05 0
0.000110211 4.80875e-05 0
0.000108244 4.71951e-05 0
0.000109312 4.58413e-05 0
0.000111755 3.99116e-05 0
0.00010944 3.92972e-05 0
0.000110415 4.05876e-05 0
0.000108839 4.07536e-05 0
0.000106472 4.76905e-05 0
0.000107274 4.57868e-05 0
0.000108011 3.92415e-05 0
0.000106885 4.04365e-05 0
0.000106625 3.88708e-05 0
0.000105286 4.19254e-05 0
0.000105055 3.95469e-05 0
0.000104215 4.39764e-05 0
0.000106346 4.40629e-05 0
0.000100945 4.51249e-05 0
0.000102825 4.5614e-05 0
0.000101189 4.68452e-05 0
0.000107625 3.8125e-05 0
0.000105575 3.7875e-05 0
0.0001066 3.8e-05 0
0.000103352 4.76905e-05 0
0.000101803 4.8465e-05 0
0.000103685 3.89398e-05 0
0.00010245 3.8825e-05 0
0.000103525 3.7625e-05 0
0.000101092 3.99779e-05 0
0.000101267 3.82619e-05 0
0.000101382 4.2025e-05 0
0.000103187 4.05286e-05 0
0.000103359 4.24605e-05 0
9.87383e-05 4.5447e-05 0
9.99411e-05 4.35161e-05 0
9.744e-05 4.33145e-05 0
0.00010045 3.725e-05 0
0.000101475 3.7375e-05 0
9.70845e-05 4.65215e-05 0
9.52614e-05 4.67664e-05 0
9.61768e-05 4.49944e-05 0
9.9729e-05 3.87704e-05 0
9.78901e-05 3.9598e-05 0
9.85823e-05 3.81492e-05 0
9.62289e-05 3.93709e-05 0
9.74259e-05 3.81279e-05 0
9.7375e-05 3.6875e-05 0
9.63045e-05 3.76631e-05 0
9.58e-05 5e-05 0
9.32e-05 5e-05 0
9.47542e-05 4.8457e-05 0
9.49675e-05 3.85246e-05 0
9.36214e-05 3.89472e-05 0
9.40006e-05 3.74906e-05 0
9.66411e-05 4.12573e-05 0
9.44241e-05 4.07079e-05 0
9.03569e-05 4.24993e-05 0
9.21701e-05 4.02409e-05 0
9.27439e-05 4.27744e-05 0
8.89795e-05 4.09067e-05 0
9.03071e-05 4.0248e-05 0
9.25447e-05 3.77721e-05 0
9.3275e-05 3.6375e-05 0
9.07708e-05 3.87127e-05 0
9.11303e-05 3.70839e-05 0
9.11933e-05 4.55145e-05 0
9.30678e-05 4.73279e-05 0
9.11886e-05 4.82603e-05 0
8.87724e-05 3.88076e-05 0
8.99595e-05 3.75116e-05 0
9.02e-05 3.6e-05 0
8.89241e-05 3.6954e-05 0
8.36977e-05 4.59472e-05 0
8.36223e-05 4.83578e-05 0
8.20467e-05 4.74142e-05 0
8.71227e-05 4.03557e-05 0
8.61e-05 3.55e-05 0
8.68368e-05 3.65714e-05 0
8.5484e-05 3.6588e-05 0
8.47735e-05 4.02845e-05 0
8.23121e-05 4.21599e-05 0
8.26582e-05 3.98147e-05 0
8.46943e-05 4.2454e-05 0
8.38832e-05 3.78613e-05 0
8.35569e-05 3.63808e-05 0
8.44098e-05 3.6291e-05 0
8.5075e-05 3.5375e-05 0
8.51465e-05 4.77163e-05 0
8.3025e-05 3.5125e-05 0
8.22824e-05 3.68659e-05 0
8.1446e-05 3.57362e-05 0
8.05884e-05 3.71794e-05 0
7.53471e-05 4.77524e-05 0
7.38313e-05 4.73927e-05 0
7.39102e-05 4.61526e-05 0
7.9826e-05 3.58588e-05 0
7.88607e-05 3.76287e-05 0
7.81733e-05 3.57987e-05 0
8.16783e-05 3.84471e-05 0
8.07975e-05 4.04095e-05 0
7.52138e-05 4.04775e-05 0
7.67682e-05 4.17043e-05 0
7.49617e-05 4.21803e-05 0
7.52903e-05 3.84008e-05 0
7.38293e-05 3.93136e-05 0
[...]
CELL_DATA 58684
VECTORS velocity DOUBLE
74.6059 0.336809 0
87.2828 0.000193004 0
87.2585 -7.61965e-05 0
87.2886 -0.0012139 0
87.2633 0.00100826 0
87.2937 -0.00292929 0
87.2693 0.00346758 0
77.9112 0.000702441 0
77.941 -0.025928 0
78.1059 -0.000382339 0
78.2583 -0.00206398 0
78.3466 -0.41415 0
78.0016 -0.10919 0
78.4412 -0.136718 0
77.9722 -0.183515 0
78.6816 -0.168547 0
77.913 -0.113635 0
79.1056 -0.159305 0
78.0512 -0.31833 0
79.6743 -0.108563 0
77.9226 -0.118195 0
79.0654 -0.374017 0
86.0737 -2.1685 0
77.874 0.0132726 0
77.8902 0.0511851 0
77.8725 0.0247382 0
77.9574 0.143829 0
77.9407 0.0246103 0
77.9434 0.187906 0
78.0997 0.0487319 0
77.9214 0.145534 0
78.0379 0.0350119 0
77.8875 0.141778 0
78.5272 0.162196 0
78.2228 1.14267 0
78.346 0.0708989 0
77.9313 0.182525 0
78.6242 0.355886 0
87.2993 0.000155216 0
87.3049 0.000201742 0
87.3137 -0.00570343 0
87.3144 -0.00287327 0
87.3247 0.000454105 0
87.3336 -0.00465867 0
87.3356 -0.00745482 0
87.3382 -0.00344358 0
87.3468 0.0001043 0
87.3536 -0.00735919 0
87.354 -0.00535487 0
87.3632 -0.000215688 0
87.3722 -0.00803608 0
87.3734 -0.00917586 0
87.3756 -0.00481628 0
87.3836 -0.000438227 0
87.3899 -0.00931435 0
87.3903 -0.00727791 0
87.3989 -0.00115037 0
87.4082 -0.0116132 0
87.4093 -0.0116892 0
87.4118 -0.00600811 0
87.4218 -0.000269767 0
87.4243 -0.0144025 0
87.4323 -0.00937422 0
87.4438 -0.000837818 0
87.445 -0.0169357 0
87.4472 -0.0142288 0
87.4551 -0.0113184 0
87.4627 -0.000970807 0
87.4642 -0.0169035 0
87.4721 -0.0121034 0
87.4813 -0.00152274 0
87.4828 -0.0192455 0
87.4891 -0.0140953 0
87.4972 -0.0230928 0
87.5058 -0.000706721 0
87.5093 -0.0174573 0
87.515 -0.0111278 0
87.5281 -0.00166275 0
87.5306 -0.0241746 0
87.5534 -0.0194463 0
87.5349 -0.0195006 0
87.5553 -0.00126183 0
87.5646 -0.0130204 0
87.5578 -0.0248339 0
87.5903 -0.0158223 0
87.5838 -0.0208429 0
87.5804 -0.0284329 0
87.5933 -0.0346263 0
87.6185 -0.0221512 0
87.6339 -0.0312612 0
87.608 -0.026678 0
87.626 -0.0387649 0
87.6474 -0.0299494 0
87.6428 -0.0298837 0
87.6519 -0.0411763 0
87.6881 -0.0382968 0
87.6699 -0.0336335 0
87.6774 -0.0440137 0
87.6989 -0.0511625 0
87.7075 -0.0386071 0
87.7375 -0.0473009 0
87.7097 -0.0407882 0
87.7424 -0.0144257 0
87.7414 -0.0520937 0
87.7653 -0.0491825 0
87.7551 -0.0537556 0
87.7716 -0.0155328 0
87.7723 -0.0574051 0
87.7913 -0.0636424 0
87.818 -0.0363831 0
87.8126 -0.0388669 0
87.7943 -0.0531092 0
87.8337 -0.0687514 0
87.8368 -0.0286748 0
87.8699 -0.0625629 0
87.856 -0.0406172 0
87.9024 -0.00237283 0
87.8807 -0.0706618 0
87.8988 -0.0810063 0
87.938 -0.0712307 0
87.9638 -0.0538811 0
87.9116 -0.043541 0
87.9483 -0.0815214 0
87.9952 -0.054419 0
87.9859 -0.0853825 0
87.9619 -0.0303403 0
88.001 -0.0766911 0
88.0246 -0.0277957 0
88.017 -0.089668 0
88.0493 -0.103004 0
88.0939 -0.060608 0
88.0826 -0.0841953 0
88.0559 -0.0388757 0
88.1286 -0.109774 0
88.0709 -0.0307329 0
88.1034 -0.109377 0
88.1806 -0.121003 0
88.1977 -0.0842096 0
88.217 -0.104375 0
88.1681 -0.101774 0
88.1999 -0.110227 0
88.1675 -0.0487766 0
88.2495 -0.126635 0
88.2785 -0.138092 0
88.3174 -0.0896981 0
88.2317 -0.066252 0
88.2741 -0.118011 0
88.2976 -0.140182 0
88.2602 -0.0271243 0
88.3747 -0.148121 0
88.3894 -0.163396 0
88.436 -0.0989348 0
88.3405 -0.0891059 0
88.4056 -0.135952 0
88.4289 -0.163402 0
88.3673 -0.0282923 0
88.4489 -0.188317 0
88.5026 -0.2005 0
88.5187 -0.1418 0
88.5142 -0.163471 0
88.5696 -0.149789 0
88.5479 -0.206555 0
88.5513 -0.0537454 0
88.5589 -0.193491 0
88.6365 -0.197167 0
88.6101 -0.0646286 0
88.7061 -0.23419 0
88.734 -0.216512 0
88.7136 -0.13655 0
88.7814 -0.106328 0
88.71 -0.238616 0
88.7494 -0.263264 0
88.7522 -0.0538495 0
88.8243 -0.266488 0
88.8751 -0.275025 0
88.7934 -0.197216 0
88.8601 -0.124881 0
88.8992 -0.165299 0
88.9075 -0.313655 0
88.9499 -0.108175 0
88.9732 -0.293937 0
89.006 -0.289004 0
89.0307 -0.337838 0
88.9828 -0.00439601 0
89.133 -0.338719 0
89.0168 -0.261243 0
89.1415 -0.238328 0
89.2133 -0.280596 0
89.1818 -0.376607 0
89.2393 -0.381888 0
89.1047 -0.0858009 0
89.2775 -0.372827 0
89.305 -0.430002 0
89.3193 -0.414514 0
89.421 -0.0976629 0
89.3044 -0.329927 0
89.4737 -0.479527 0
89.5288 -0.368032 0
89.4489 -0.309432 0
89.5371 -0.511238 0
89.5185 -0.502226 0
89.4084 -0.0870859 0
89.6244 -0.563289 0
89.6621 -0.529499 0
89.8535 -0.103808 0
89.7646 -0.58561 0
89.6087 -0.406634 0
89.87 -0.376123 0
89.9326 -0.487146 0
89.8214 -0.532956 0
89.8421 -0.636479 0
89.9098 -0.23191 0
90.0193 -0.619383 0
89.9732 -0.710934 0
90.1664 -0.726524 0
90.132 -0.0111018 0
90.1241 -0.599568 0
90.1802 -0.753968 0
90.0254 -0.186572 0
90.2439 -0.794046 0
90.3455 -0.458881 0
90.2913 -0.830782 0
90.5127 -0.258071 0
90.4655 -0.719552 0
90.4293 -0.847187 0
90.376 -0.131115 0
90.5739 -0.875766 0
90.76 -0.855908 0
90.606 -0.72849 0
90.6544 -0.43921 0
90.7936 -0.984897 0
90.8083 -0.386304 0
90.9689 -0.066293 0
90.7387 -0.774313 0
90.9119 -0.975868 0
91.0023 -1.04914 0
91.0339 -0.328787 0
91.1509 -0.905409 0
91.309 -0.992155 0
91.1092 -0.111269 0
91.4583 -0.965032 0
91.3721 -1.07827 0
91.2313 -0.798119 0
91.2904 -0.384794 0
91.4044 -0.449904 0
91.5284 -1.08379 0
91.4516 -0.00704503 0
91.6371 -1.15579 0
91.7735 -1.09578 0
91.7292 -1.15401 0
91.6917 -0.251235 0
91.8354 -0.939095 0
92.0855 -0.951022 0
91.6522 -0.00533722 0
92.1777 -1.12867 0
92.3501 -0.957471 0
91.9987 -0.695278 0
91.8183 -0.28789 0
92.3485 -1.08206 0
91.981 -0.356722 0
91.7684 -0.01717 0
92.2721 -0.728013 0
92.6067 -0.981865 0
92.7684 -0.916101 0
91.9449 -0.077641 0
92.7091 -0.625031 0
92.8531 -0.81964 0
91.791 0.0294361 0
92.9876 -0.805789 0
93.1686 -0.674237 0
92.786 -0.240257 0
91.5202 0.00874027 0
93.3162 -0.449639 0
92.4422 0.191818 0
92.6687 0.297014 0
93.186 -0.298016 0
92.963 -0.0367521 0
93.6292 -0.0624792 0
91.632 0.368086 0
93.6167 -0.164808 0
93.1566 0.406421 0
93.799 0.473463 0
91.5546 0.106173 0
93.7401 1.17265 0
93.5066 1.40361 0
90.1093 0.197043 0
93.9669 0.86345 0
93.8558 1.34202 0
91.4899 1.46701 0
91.2599 0.699229 0
92.8027 1.09869 0
93.745 1.87394 0
90.3676 0.329245 0
93.2366 2.76186 0
93.9204 2.10588 0
93.9311 2.33221 0
89.559 1.41033 0
92.2482 2.89817 0
93.2825 3.14773 0
89.5501 0.23049 0
93.093 3.64893 0
92.7393 3.5376 0
91.742 5.16755 0
87.1696 0.396696 0
92.8966 4.85669 0
90.8883 3.50919 0
88.9929 1.56209 0
88.5755 2.98248 0
92.6549 5.3643 0
91.4983 5.82615 0
87.6199 0.607465 0
91.5712 6.65074 0
87.2748 0.000157053 0
87.2805 -0.000254904 0
87.2883 0.00495736 0
87.2889 0.00259356 0
87.2986 -0.000452347 0
87.3071 0.00442272 0
87.3088 0.00648221 0
87.3119 0.00248296 0
87.3195 -5.77109e-05 0
87.326 0.00707186 0
87.3264 0.00465318 0
87.335 0.000171748 0
87.3433 0.00754404 0
87.3444 0.00865986 0
87.3466 0.00455043 0
87.3543 0.000394687 0
87.3604 0.00901074 0
87.3609 0.00693322 0
87.3693 0.00111172 0
87.3783 0.0111161 0
87.3794 0.0112276 0
87.3909 0.0147233 0
87.3819 0.00568191 0
87.3985 0.00903606 0
87.4111 0.0142441 0
87.4018 0.00923415 0
87.4168 0.0139809 0
87.4246 0.0111129 0
87.4319 0.0180057 0
87.4213 0.00939347 0
87.4412 0.0120166 0
87.4498 0.0201746 0
87.441 0.0098495 0
87.4664 0.023253 0
87.4695 0.021509 0
87.4753 0.0162982 0
87.4617 0.0119159 0
87.4784 0.017466 0
87.4955 0.0166536 0
87.4841 0.0111585 0
87.5121 0.0290474 0
87.5116 0.0113438 0
87.5228 0.0193815 0
87.5077 0.0150955 0
87.5274 0.0247352 0
87.5502 0.0283409 0
87.5596 0.0159356 0
87.5466 0.0262516 0
87.5696 0.0306691 0
87.5729 0.0341279 0
87.5986 0.0171792 0
87.5882 0.0221245 0
87.6035 0.0312015 0
87.6193 0.0441266 0
87.6284 0.021162 0
87.6334 0.0347361 0
87.6441 0.0466923 0
87.6612 0.0277286 0
87.6391 0.0335507 0
87.6695 0.0519637 0
87.6722 0.0498712 0
87.6839 0.0318659 0
87.6971 0.0227215 0
87.708 0.0470898 0
87.6436 0.0150875 0
87.7258 0.0543018 0
87.7624 0.0650095 0
87.7438 0.0549807 0
87.7278 0.0326367 0
87.7771 0.0658578 0
87.7855 0.0578807 0
87.8104 0.0290386 0
87.7669 0.0542471 0
87.8135 0.0612646 0
87.833 0.0707968 0
87.7774 0.0170455 0
87.8211 0.0508778 0
87.8734 0.0817949 0
87.8321 0.0416941 0
87.8865 0.0715511 0
87.9222 0.0861263 0
87.895 0.0635686 0
87.9189 0.0256656 0
87.9344 0.0754572 0
87.9547 0.0876091 0
87.9373 0.0223989 0
87.9831 0.0962317 0
87.9457 0.0702907 0
88.0102 0.0787954 0
87.9652 0.0545226 0
88.0226 0.103882 0
88.0913 0.123756 0
88.0474 0.0306871 0
88.0443 0.085244 0
88.1209 0.130798 0
88.0958 0.0927387 0
88.0331 0.0381845 0
88.1394 0.120971 0
88.1654 0.126321 0
88.1225 0.0309095 0
88.1713 0.0550226 0
88.2023 0.109023 0
88.2216 0.146004 0
88.1443 0.0782829 0
88.2556 0.139646 0
88.2795 0.149468 0
88.2822 0.0495389 0
88.2563 0.0913996 0
88.3328 0.165664 0
88.3264 0.140767 0
88.219 0.0475194 0
88.3537 0.157367 0
88.4072 0.166975 0
88.3783 0.0655129 0
88.3693 0.144189 0
88.4685 0.198531 0
88.4534 0.151659 0
88.3199 0.0496344 0
88.4939 0.18412 0
88.5657 0.223288 0
88.4407 0.0647802 0
88.5513 0.176614 0
88.5259 0.0821462 0
88.5946 0.185582 0
88.5031 0.105985 0
88.6279 0.23504 0
88.6863 0.233642 0
88.5873 0.0647906 0
88.6766 0.229134 0
88.7556 0.263705 0
88.7089 0.067227 0
88.6442 0.193695 0
88.7455 0.225997 0
88.804 0.266503 0
88.6817 0.0415027 0
88.8151 0.243292 0
88.9184 0.316504 0
88.8978 0.266332 0
88.8323 0.080476 0
88.9718 0.279092 0
88.782 0.103098 0
88.8175 0.234709 0
88.9622 0.307991 0
89.0703 0.350469 0
89.08 0.359291 0
88.8018 0.00551301 0
89.1786 0.410458 0
89.1897 0.40015 0
89.2149 0.356507 0
89.1519 0.175244 0
89.2583 0.191995 0
89.2301 0.398224 0
89.0015 0.108073 0
89.3513 0.450986 0
89.3437 0.443023 0
89.3526 0.400161 0
89.246 0.117127 0
89.4317 0.446783 0
89.5571 0.559154 0
89.4188 0.210625 0
89.3624 0.221699 0
89.5181 0.454557 0
89.6825 0.586618 0
89.283 0.136785 0
89.7229 0.620549 0
89.7626 0.60603 0
89.5827 0.119113 0
89.9061 0.698199 0
89.9398 0.670307 0
90.0165 0.581885 0
89.7955 0.255145 0
89.7621 0.28748 0
89.9251 0.649514 0
89.6643 0.184117 0
90.0951 0.777568 0
90.1501 0.735909 0
90.1533 0.681219 0
89.8911 0.102847 0
90.3289 0.803918 0
90.3467 0.823269 0
90.1921 0.461544 0
90.4519 0.648954 0
90.212 0.374271 0
90.4055 0.791201 0
90.0969 0.236775 0
90.5684 0.924256 0
90.5935 0.894246 0
90.1388 0.190104 0
90.6709 0.825148 0
90.8577 0.953003 0
90.7674 0.930012 0
90.6599 0.216767 0
91.0738 0.99823 0
91.1196 1.06581 0
90.6064 0.642537 0
91.015 0.789715 0
90.6735 0.391575 0
91.3215 1.12208 0
90.8562 0.121542 0
91.3876 1.09014 0
91.3824 1.03268 0
90.6694 0.0967456 0
91.3133 0.93459 0
91.7131 1.10395 0
91.8079 1.11288 0
91.2634 0.280022 0
91.8828 1.08515 0
91.9325 1.15623 0
91.2392 0.705728 0
91.9399 0.762422 0
91.4237 0.271717 0
92.1015 1.15236 0
91.4488 0.100944 0
92.2489 1.07443 0
92.3385 1.05756 0
91.2764 0.0711607 0
92.1558 0.87518 0
92.6269 0.982787 0
92.7873 0.918155 0
91.71 0.177906 0
92.6232 0.859946 0
92.9224 0.866299 0
92.2486 0.746101 0
92.7049 0.432219 0
91.7894 0.11199 0
92.6914 0.776819 0
91.7965 0.0412446 0
93.1633 0.758254 0
93.2469 0.611819 0
91.6987 0.0393038 0
92.9481 0.301595 0
93.3902 0.329214 0
93.5717 0.195038 0
91.7687 -0.0966798 0
93.6558 -0.00687127 0
93.6989 -0.141536 0
91.9065 -0.2641 0
93.7114 -0.172552 0
92.9071 -0.624294 0
92.2024 -0.0866978 0
92.0145 0.00484721 0
93.839 -0.460875 0
93.5942 -0.855541 0
94.019 -1.02775 0
91.6574 -0.00505043 0
93.2935 -1.30445 0
94.0088 -1.75679 0
91.6003 -0.12185 0
93.13 -1.27344 0
93.9772 -2.29332 0
92.5554 -1.74193 0
91.5585 -0.652272 0
93.7804 -2.64321 0
93.6385 -2.93704 0
92.5359 -1.09779 0
91.9304 -3.11756 0
89.8641 -2.58668 0
93.2744 -2.98006 0
90.3236 -0.403009 0
93.2516 -3.92754 0
90.6235 7.26137 0
91.3727 6.4809 0
85.8391 1.92313 0
90.5124 7.22174 0
88.2297 6.62146 0
89.8422 7.86061 0
86.4602 0.753445 0
88.8407 8.07158 0
87.6398 7.95283 0
85.1482 0.962687 0
87.7194 8.47839 0
93.1562 -4.34891 0
90.5767 -0.250413 0
92.884 -4.69704 0
91.6246 -5.10733 0
91.0687 -4.39628 0
89.6457 -0.266286 0
91.8678 -5.69473 0
86.3745 7.75543 0
91.2009 -6.9806 0
89.3743 -1.39309 0
90.8706 -6.75016 0
89.9887 -7.72214 0
83.9398 2.36999 0
89.5426 -7.58273 0
90.7949 -4.21261 0
90.0423 -6.86436 0
88.1403 -5.08691 0
87.1968 -0.835393 0
89.0836 -6.97927 0
88.2691 -7.39675 0
85.74 8.18454 0
88.3463 -7.4063 0
88.0607 -0.452024 0
87.2874 -7.76905 0
86.7673 -8.4781 0
86.4862 -0.56158 0
85.6488 -8.63064 0
86.1595 -6.32772 0
84.2127 -0.649969 0
84.6145 -8.78609 0
84.6485 -4.87346 0
86.4348 -3.82779 0
85.1577 -7.5187 0
84.017 -7.87797 0
86.7583 4.38788 0
82.9759 0.527705 0
86.1479 2.93562 0
84.7456 -0.0713129 0
83.4695 -8.54801 0
85.35 7.753 0
82.6863 0.38489 0
84.7489 6.60007 0
82.5803 -8.41481 0
84.2941 -1.71898 0
81.8091 -6.14506 0
84.7696 8.84116 0
81.5026 2.03331 0
84.6639 8.76687 0
82.3479 7.3218 0
81.801 0.415673 0
83.0209 7.69216 0
82.4443 -6.38811 0
83.7759 -0.477139 0
81.7047 -8.54428 0
81.7162 -8.31251 0
83.4092 8.26145 0
81.421 7.88318 0
81.054 0.03773 0
82.5202 8.13431 0
80.53 5.10271 0
81.0752 2.29889 0
80.7585 -8.4954 0
81.5712 -1.10551 0
81.0967 -8.37086 0
80.2879 8.33877 0
80.1054 -7.76332 0
80.6325 -1.08332 0
80.2805 -3.41124 0
78.8129 -7.46176 0
81.8457 -4.12084 0
78.6637 -7.21541 0
80.072 -0.288473 0
77.7301 -6.89622 0
79.7723 2.87551 0
80.3763 0.462039 0
79.8231 7.00128 0
79.6822 0.11366 0
79.6426 8.21564 0
79.3336 7.71475 0
79.3251 0.183959 0
78.5317 6.75242 0
79.0579 0.133612 0
79.1107 -6.44869 0
80.074 -0.57738 0
80.3547 6.06821 0
78.0524 0.745967 0
78.0731 6.3431 0
77.6052 -6.8583 0
80.1894 -0.233467 0
75.9438 -5.86186 0
77.9783 -0.44216 0
76.7576 -5.76883 0
78.9759 2.56076 0
77.8691 0.118748 0
79.8143 -5.25211 0
77.8734 -0.112859 0
76.0472 -5.43119 0
77.453 5.72389 0
77.4104 -4.292 0
77.9229 -0.248472 0
76.3217 -4.653 0
78.3579 3.15716 0
76.1774 2.00794 0
76.9225 4.94694 0
77.8458 -0.994254 0
76.1876 -5.15825 0
77.8956 0.402158 0
76.8971 6.67522 0
78.0592 -2.39381 0
77.869 -0.0849537 0
75.8341 -4.64954 0
76.6072 5.96574 0
77.9712 0.721108 0
76.5003 4.6625 0
76.237 4.60433 0
77.8932 0.378555 0
75.42 4.09558 0
74.9867 -4.1829 0
77.9039 -0.297792 0
74.6838 -4.17164 0
76.9285 -1.99612 0
77.8956 -0.204242 0
74.0389 -2.84364 0
75.5064 5.09783 0
77.913 0.627825 0
76.662 3.26614 0
74.6324 -2.58415 0
77.8579 -0.310814 0
73.995 -2.35364 0
74.3735 3.75302 0
77.8723 0.269637 0
74.7607 3.53324 0
75.0426 2.88562 0
77.8714 0.0370779 0
74.2272 3.07116 0
75.2825 -1.52161 0
77.8522 -0.548186 0
74.5957 -1.3389 0
73.4511 -0.854354 0
77.3253 -0.935684 0
73.4985 -0.721769 0
77.061 0.966084 0
77.8629 0.0731418 0
76.2685 2.45315 0
74.0022 2.47405 0
77.7943 0.0596489 0
73.5762 1.56349 0
77.595 -0.239413 0
77.8697 -0.110107 0
73.4956 -0.237661 0
74.0053 -0.0934204 0
77.8767 -0.0666025 0
76.1334 0.311717 0
74.1695 0.532165 0
77.872 -0.0628377 0
77.6529 -5.6842 0
78.0231 -0.434944 0
77.8725 0.129515 0
78.5573 6.91671 0
79.5387 -7.76981 0
82.5906 -0.950017 0
80.8843 0.999435 0
82.2893 8.64344 0
77.8644 0.278766 0
74.9544 4.87852 0
74.3928 -2.85086 0
77.8443 -0.196906 0
77.9882 -0.572583 0
77.9624 -3.69027 0
78.0956 0.805461 0
77.944 0.204207 0
77.8785 -0.00171807 0
74.062 2.06305 0
79.645 0.469424 0
78.6636 1.58839 0
79.0139 -1.37971 0
80.6807 -0.694832 0
86.5751 -1.26427 0
86.1369 -8.47247 0
88.0766 8.07328 0
86.0904 0.467424 0
78.0056 1.67715 0
80.1981 8.03311 0
79.0714 -7.11575 0
79.6371 -2.3251 0
77.1691 -1.46741 0
74.9725 -0.226835 0
76.6365 5.85945 0
78.3426 1.90865 0
78.1707 -1.8009 0
75.2127 -4.65527 0
92.6243 -5.33805 0
89.3143 -0.657612 0
88.8715 0.785872 0
93.0835 4.42853 0
78.0916 -0.819533 0
77.9165 -0.0471976 0
77.9194 0.146993 0
79.2459 0.764223 0
83.7161 0.732023 0
83.3438 4.11114 0
81.7064 -1.99444 0
84.9727 -1.74604 0
82.2255 4.91246 0
85.2888 8.31873 0
84.0919 -8.70538 0
83.1302 -1.92246 0
87.3768 1.60767 0
88.4777 5.01565 0
87.004 -2.78606 0
88.213 -0.0401384 0
91.5395 -0.246296 0
93.9759 -1.27453 0
93.83 0.48427 0
90.6963 0.0267867 0
91.7627 0.00368336 0
93.2873 0.592667 0
93.0666 -0.577025 0
91.8948 0.0318594 0
79.3384 -1.45826 0
78.6776 -0.579913 0
78.6162 1.24546 0
79.514 0.9603 0
78.4253 1.2381 0
77.9219 0.244875 0
77.8701 -0.104177 0
78.3251 -1.13983 0
90.3581 0.945374 0
91.6085 1.86118 0
90.6911 -1.13469 0
90.9245 -0.16813 0
76.257 -0.963376 0
77.898 -0.156835 0
77.6245 -0.441401 0
77.9285 -0.380601 0
77.8857 0.201514 0
78.0344 0.971163 0
92.4109 1.00206 0
91.5837 0.158394 0
91.7192 -0.00519852 0
92.1412 -1.08329 0
82.1919 -0.0370457 0
81.3937 -2.83633 0
82.5212 1.80974 0
81.1249 0.449034 0
78.2228 4.07069 0
77.8408 7.35172 0
77.5488 -6.29411 0
78.6496 -3.25011 0
79.1092 -2.12819 0
77.8189 -2.24193 0
78.3454 4.66047 0
78.5172 2.23825 0
91.897 0.0432598 0
91.6106 0.139668 0
91.8094 -0.046614 0
92.7899 0.112374 0
80.2642 -5.44423 0
81.3802 -5.27758 0
80.9285 4.65752 0
81.5679 8.56515 0
79.5223 -3.99786 0
80.707 -2.321 0
80.5486 3.12744 0
79.5984 1.54834 0
91.6454 1.17266 0
91.0885 0.144705 0
91.3265 -0.011501 0
91.2172 -1.05164 0
77.5182 1.02559 0
77.8706 0.0263992 0
91.7849 -0.0601046 0
92.4307 -0.366241 0
92.1445 0.256094 0
91.6257 0.0394315 0
79.1037 -0.965926 0
78.5833 -1.3455 0
79.47 1.75455 0
78.4083 0.738538 0
77.9223 -0.147459 0
78.2965 -0.707268 0
78.0515 0.315622 0
77.8941 0.135309 0
74.4804 1.71987 0
77.217 1.53423 0
87.7805 -3.14734 0
91.1912 -6.32717 0
92.1746 5.76552 0
87.4888 2.26871 0
77.1177 -2.33163 0
75.1192 -2.91456 0
90.3987 0.158465 0
90.6615 0.893402 0
89.6713 0.0740571 0
90.2936 0.841132 0
90.6785 -0.868091 0
90.5315 -0.142464 0
90.0482 -0.696981 0
89.9853 -0.0133394 0
91.4911 -0.21977 0
91.6062 -0.632246 0
91.455 0.398248 0
91.213 0.00771927 0
77.8928 0.176843 0
77.8073 0.545204 0
76.7101 0.451349 0
74.5658 0.848901 0
77.8734 -0.255469 0
77.8708 -0.167715 0
77.5485 0.273707 0
77.5079 -0.762028 0
93.7799 -2.69348 0
90.6025 -1.73657 0
91.5935 2.19957 0
93.9556 1.56742 0
78.1288 -0.0620398 0
78.2675 -0.364244 0
77.9295 0.0563893 0
78.4822 0.263806 0
90.8927 -0.208705 0
90.9079 -0.540179 0
90.9371 0.362425 0
90.538 0.115989 0
89.476 0.160378 0
89.6566 0.514895 0
89.6766 -0.597779 0
89.5762 -0.145043 0
78.7024 -0.905991 0
79.754 -2.15018 0
79.1406 1.62069 0
78.7005 1.27995 0
79.5422 2.89443 0
77.8408 1.86445 0
78.3821 -1.93583 0
79.1418 -2.8102 0
92.2308 -0.523635 0
93.2034 0.314713 0
93.3738 -0.3107 0
92.6512 0.557231 0
77.8773 -1.16244 0
78.0123 -1.37885 0
78.0045 1.09413 0
77.5656 1.32008 0
89.4756 0.524426 0
89.1832 0.155149 0
89.2486 -0.0982362 0
89.4164 -0.446393 0
85.8186 4.26967 0
87.8821 7.12676 0
87.3689 -8.40028 0
86.9014 -3.34143 0
75.6041 -3.44046 0
77.9121 -3.5286 0
85.4293 -3.06458 0
86.1041 -1.0985 0
84.3896 0.455701 0
87.8344 3.1005 0
75.2292 4.64389 0
77.0387 2.74505 0
90.2337 -0.0518678 0
90.4034 -0.547346 0
90.2865 0.36247 0
90.197 0.0989688 0
89.7749 -0.368396 0
89.5326 -1.50714 0
90.0949 2.07608 0
89.1008 0.271046 0
83.7261 1.40042 0
81.8925 0.351361 0
83.0748 -0.339712 0
83.7776 -3.1139 0
92.1072 0.32982 0
92.3942 0.869614 0
92.5505 -0.946463 0
92.4236 -0.0661893 0
82.7275 -3.83737 0
83.8614 -1.83806 0
83.0473 2.7169 0
85.7041 5.99211 0
89.0582 0.312534 0
88.9324 0.0586426 0
89.1197 -0.0953207 0
89.0437 -0.32433 0
89.6878 -0.182036 0
89.8624 -0.00829241 0
89.8332 0.10171 0
89.6424 0.423653 0
80.3136 0.50144 0
80.0562 1.31112 0
80.3395 -1.14961 0
81.2415 -0.322702 0
81.9696 2.83513 0
80.242 1.95594 0
79.619 -2.84474 0
78.7296 -2.88032 0
91.573 -0.475008 0
91.3155 -0.275226 0
91.126 0.371022 0
92.0852 0.613634 0
80.2879 3.85773 0
80.7874 2.58251 0
79.6329 -0.831295 0
79.4382 -0.297819 0
79.2519 0.268351 0
80.0641 0.890446 0
76.8369 -0.882152 0
77.7533 -1.3605 0
93.1322 -3.60361 0
90.6441 -2.05252 0
90.0694 3.73238 0
93.5264 3.66025 0
78.033 -0.869093 0
77.9059 -0.146024 0
77.8564 0.194761 0
78.1056 0.855917 0
78.396 0.0869813 0
78.4367 0.633035 0
78.6084 -0.343378 0
78.7794 -0.0183182 0
75.7582 -0.271911 0
73.5103 0.15275 0
85.8302 3.22435 0
90.0345 2.96123 0
88.6949 -2.50868 0
89.2914 -4.95983 0
77.8605 2.08185 0
77.3865 1.16714 0
77.8667 -0.0261418 0
77.778 -0.0542261 0
80.9352 6.85708 0
78.6981 4.0774 0
80.509 -4.31027 0
79.5969 -8.13482 0
77.5632 0.787556 0
77.8612 0.423872 0
91.4896 0.529691 0
91.8369 1.15335 0
91.5302 -1.05224 0
91.4696 -0.206455 0
89.2662 -0.116996 0
89.4889 -0.0798344 0
89.4609 0.0677921 0
89.3381 0.385993 0
93.734 0.404693 0
92.561 1.35676 0
92.6449 -0.537919 0
93.8576 -0.660209 0