# vtk DataFile Version 3.0
Unstructured Grid for Triangles
ASCII
DATASET UNSTRUCTURED_GRID
POINTS 29612 DOUBLE
-0.000272397 1.23686e-05 0
-0.000295789 9.5838e-06 0
-0.000277865 -3.1235e-06 0
0.002024 0.0005 0
0.00203975 0.00049875 0
0.00205 0.0005 0
0.00203975 -0.00049875 0
0.002024 -0.0005 0
0.00205 -0.0005 0
0.0020295 0.0004975 0
0.0020295 -0.0004975 0
0.00201925 0.00049625 0
0.00201925 -0.00049625 0
-0.000529747 -0.000479887 0
-0.00055 -0.0005 0
-0.000524 -0.0005 0
-0.000505983 -0.000484325 0
-0.000498 -0.0005 0
-0.000472 -0.0005 0
-0.000483864 -0.000487761 0
-0.000446 -0.0005 0
-0.000459 -0.000484239 0
-0.000429453 -0.000424878 0
-0.000447486 -0.000420717 0
-0.000441829 -0.000436609 0
-0.000512578 -0.000462101 0
-0.000493078 -0.000453594 0
-0.00050706 -0.000439006 0
-0.000419243 -0.000477545 0
-0.000440307 -0.000471837 0
-0.00043691 -0.000486724 0
-0.000516129 -0.000420948 0
-0.000495355 -0.000415432 0
-0.000511646 -0.00040128 0
-0.000394697 -0.000481197 0
-0.000406302 -0.000455143 0
-0.000537257 -0.000388197 0
-0.000531099 -0.000407297 0
-0.000523982 -0.000388328 0
-0.000370063 -0.000472956 0
-0.000368 -0.0005 0
-0.00035308 -0.000485302 0
-0.0005072 -0.00037867 0
-0.000485506 -0.000383975 0
-0.000490949 -0.000359622 0
-0.000337127 -0.000484331 0
-0.000316 -0.0005 0
-0.000326495 -0.00047415 0
-0.00055 -0.00035 0
-0.000531201 -0.000370361 0
-0.000528367 -0.000346817 0
-0.000363898 -0.000448809 0
-0.000383315 -0.000460336 0
-3.26269e-05 -0.000415503 0
-5.99662e-05 -0.000409556 0
-5.46944e-05 -0.000429488 0
-0.000529747 0.000479887 0
-0.00055 0.0005 0
-0.00055 0.000475 0
-0.00055 0.00045 0
-0.000534834 0.000429171 0
-0.000526943 0.000442611 0
-0.000534026 0.000460176 0
-0.000531099 0.000407297 0
-0.000511672 0.000401178 0
-0.000516129 0.000420948 0
-0.000524 0.0005 0
-0.000505983 0.000484325 0
-0.000531201 0.000370361 0
-0.0005072 0.00037867 0
-0.000523982 0.000388328 0
-0.00048341 0.000469132 0
-0.000483679 0.000487539 0
-0.000528367 0.000346817 0
-0.00055 0.000325 0
-0.000525657 0.000328474 0
-0.000498 0.0005 0
-0.000530382 0.0003125 0
-0.000419243 0.000477545 0
-0.000440015 0.00047335 0
-0.000425917 0.000463678 0
-0.000435138 0.000262661 0
-0.000414982 0.000274462 0
-0.000435654 0.000285217 0
-0.000459 0.000484239 0
-0.000436852 0.000487027 0
-0.000446 0.0005 0
-0.000533308 0.000292503 0
-0.00055 0.000275 0
-0.000523377 0.000276953 0
-0.000425282 0.000446352 0
-0.000409368 0.000435728 0
-0.000406302 0.000455143 0
0.002009 0.000495 0
0.001998 0.0005 0
0.00199875 0.00049375 0
0.0019885 0.0004925 0
0.001972 0.0005 0
0.00197825 0.00049125 0
0.001968 0.00049 0
0.00195775 0.00048875 0
0.001946 0.0005 0
0.0019475 0.0004875 0
0.00193725 0.00048625 0
0.00192 0.0005 0
0.001927 0.000485 0
0.00191675 0.00048375 0
0.0019065 0.0004825 0
0.001894 0.0005 0
0.00189625 0.00048125 0
0.001886 0.00048 0
0.001868 0.0005 0
0.00187575 0.00047875 0
0.0018655 0.0004775 0
0.00185515 0.00048575 0
0.001842 0.0005 0
0.001845 0.000475 0
0.00185525 0.00047625 0
0.00182564 0.0004829 0
0.001816 0.0005 0
0.0018245 0.0004725 0
0.00183475 0.00047375 0
0.00181425 0.00047125 0
0.00180295 0.000482657 0
0.00179 0.0005 0
0.00179375 0.00046875 0
0.001804 0.00047 0
0.00178168 0.000480619 0
0.001764 0.0005 0
0.00177325 0.00046625 0
0.0017835 0.0004675 0
0.00176428 0.000476631 0
0.001763 0.000465 0
0.001738 0.0005 0
0.001751 0.000484164 0
0.00175275 0.00046375 0
0.00174025 0.000475632 0
0.001712 0.0005 0
0.00172615 0.000478449 0
0.001722 0.00046 0
0.00173225 0.00046125 0
0.0017015 0.0004575 0
0.00171243 0.00047381 0
0.00169554 0.000479999 0
0.001686 0.0005 0
0.00167507 0.000479751 0
0.00168498 0.000464861 0
0.00166 0.0005 0
0.0016558 0.000471459 0
0.00167135 0.000462887 0
0.001681 0.000455 0
0.0016605 0.0004525 0
0.00167075 0.00045375 0
0.00164059 0.000461599 0
0.0016394 0.000479551 0
0.00162881 0.00046615 0
0.00162975 0.00044875 0
0.00165025 0.00045125 0
0.00164 0.00045 0
0.00161754 0.000458641 0
0.00161722 0.000478101 0
0.00159956 0.000458294 0
0.00160925 0.00044625 0
0.0016195 0.0004475 0
0.00157667 0.000460322 0
0.00158875 0.00044375 0
0.00159194 0.000480155 0
0.001599 0.000445 0
0.0015785 0.0004425 0
0.00155808 0.000456757 0
0.00155647 0.000476701 0
0.00154059 0.000466642 0
0.00153756 0.000450083 0
0.00154839 0.000450446 0
0.00156825 0.00044125 0
0.00151954 0.000480508 0
0.00154052 0.00048477 0
0.00153 0.0005 0
0.00154775 0.00043875 0
0.00152142 0.000456625 0
0.00152821 0.000445753 0
0.0015375 0.0004375 0
0.001504 0.0005 0
0.00149644 0.000485168 0
0.00151787 0.000443178 0
0.00152725 0.00043625 0
0.00150675 0.00043375 0
0.001517 0.000435 0
0.00148119 0.000450887 0
0.00148072 0.000475756 0
0.00146584 0.000463516 0
0.00150008 0.00046396 0
0.00149351 0.00044543 0
0.0015061 0.000446252 0
0.001476 0.00043 0
0.00148625 0.00043125 0
0.00146492 0.000482975 0
0.00144888 0.000473562 0
0.00146676 0.000444259 0
0.00145255 0.000453656 0
0.00145652 0.000438669 0
0.00141401 0.000479821 0
0.001426 0.0005 0
0.0014 0.0005 0
0.00144374 0.000438862 0
0.0014555 0.0004275 0
0.001435 0.000425 0
0.00144525 0.00042625 0
0.00142746 0.000438121 0
0.00141288 0.000443191 0
0.00141707 0.000432778 0
0.0013921 0.000438992 0
0.00140355 0.00045932 0
0.00138302 0.00045922 0
0.00142912 0.000458869 0
0.00140592 0.000430037 0
0.0014145 0.0004225 0
0.00136458 0.00045869 0
0.00137106 0.00044063 0
0.001394 0.00042 0
0.00138259 0.000428915 0
0.00137484 0.000477094 0
0.00139166 0.000478902 0
0.0013586 0.000478984 0
0.00133449 0.000478649 0
0.00134717 0.000461848 0
0.00137256 0.000425134 0
0.00135323 0.000424541 0
0.00136325 0.00041625 0
0.00136122 0.00042876 0
0.00131206 0.000447284 0
0.00133168 0.000456738 0
0.00131773 0.000465243 0
0.00134756 0.000440343 0
0.00132747 0.000436463 0
0.00133483 0.000426786 0
0.00131081 0.00041867 0
0.00132382 0.000422815 0
0.00131507 0.00043122 0
0.00131059 0.000480123 0
0.0013325 0.0004125 0
0.0012915 0.0004075 0
0.0012982 0.000418199 0
0.00128915 0.000426216 0
0.00126366 0.000447574 0
0.00127331 0.000430908 0
0.00128781 0.000444872 0
0.00125336 0.000428376 0
0.00130218 0.000431077 0
0.00127894 0.000416344 0
0.00124774 0.000469608 0
0.00127668 0.000464148 0
0.00126591 0.00048331 0
0.00126722 0.000418415 0
0.00125768 0.000411931 0
0.00124326 0.000413546 0
0.0012505 0.0004025 0
0.00122408 0.000450118 0
0.00120276 0.000447432 0
0.0012139 0.000432235 0
0.00124336 0.000444132 0
0.00123056 0.000427595 0
0.00122977 0.000409049 0
0.0012185 0.000469217 0
0.00122676 0.000485947 0
0.00120525 0.000486094 0
0.00121479 0.000413153 0
0.00119547 0.000424221 0
0.00120249 0.000407448 0
0.00119925 0.00039625 0
0.00119346 0.000406114 0
0.00117479 0.000447279 0
0.00114726 0.000445259 0
0.0011571 0.000427814 0
0.00119443 0.000466611 0
0.00117447 0.000421596 0
0.00118421 0.00040752 0
0.00117409 0.000404437 0
0.00116775 0.000470073 0
0.001179 0.0004855 0
0.00115473 0.000484802 0
0.0011685 0.0003925 0
0.00117875 0.00039375 0
0.00115454 0.000400551 0
0.001148 0.00039 0
0.00115825 0.00039125 0
0.00111703 0.000423398 0
0.00113786 0.000426731 0
0.00112589 0.000443871 0
0.00113234 0.000406671 0
0.00114754 0.000413371 0
0.001106 0.000442326 0
0.00109703 0.000424261 0
0.0011275 0.0003875 0
0.00113775 0.00038875 0
0.00110211 0.000480875 0
0.00108244 0.000471951 0
0.00109312 0.000458413 0
0.00111755 0.000399116 0
0.0010944 0.000392972 0
0.00110415 0.000405876 0
0.00108839 0.000407536 0
0.00106472 0.000476905 0
0.00107274 0.000457868 0
0.00108011 0.000392415 0
0.00106885 0.000404365 0
0.00106625 0.000388708 0
0.00105286 0.000419254 0
0.00105055 0.000395469 0
0.00104215 0.000439764 0
0.00106346 0.000440629 0
0.00100945 0.000451249 0
0.00102825 0.00045614 0
0.00101189 0.000468452 0
0.00107625 0.00038125 0
0.00105575 0.00037875 0
0.001066 0.00038 0
0.00103352 0.000476905 0
0.00101803 0.00048465 0
0.00103685 0.000389398 0
0.0010245 0.00038825 0
0.00103525 0.00037625 0
0.00101092 0.000399779 0
0.00101267 0.000382619 0
0.00101382 0.00042025 0
0.00103187 0.000405286 0
0.00103359 0.000424605 0
0.000987383 0.00045447 0
0.000999411 0.000435161 0
0.0009744 0.000433145 0
0.0010045 0.0003725 0
0.00101475 0.00037375 0
0.000970845 0.000465215 0
0.000952614 0.000467664 0
0.000961768 0.000449944 0
0.00099729 0.000387704 0
0.000978901 0.00039598 0
0.000985823 0.000381492 0
0.000962289 0.000393709 0
0.000974259 0.000381279 0
0.00097375 0.00036875 0
0.000963045 0.000376631 0
0.000958 0.0005 0
0.000932 0.0005 0
0.000947542 0.00048457 0
0.000949675 0.000385245 0
0.000936214 0.000389472 0
0.000940006 0.000374906 0
0.000966411 0.000412573 0
0.000944241 0.000407079 0
0.000903569 0.000424993 0
0.000921701 0.000402409 0
0.000927439 0.000427744 0
0.000889795 0.000409067 0
0.000903071 0.00040248 0
0.000925447 0.000377721 0
0.00093275 0.00036375 0
0.000907708 0.000387127 0
0.000911303 0.000370839 0
0.000911933 0.000455145 0
0.000930678 0.000473279 0
0.000911886 0.000482603 0
0.000887724 0.000388076 0
0.000899595 0.000375116 0
0.000902 0.00036 0
0.000889241 0.00036954 0
0.000836977 0.000459472 0
0.000836223 0.000483578 0
0.000820467 0.000474142 0
0.000871227 0.000403557 0
0.000861 0.000355 0
0.000868368 0.000365714 0
0.00085484 0.00036588 0
0.000847735 0.000402845 0
0.000823121 0.000421599 0
0.000826582 0.000398147 0
0.000846943 0.00042454 0
0.000838832 0.000378613 0
0.000835569 0.000363808 0
0.000844098 0.00036291 0
0.00085075 0.00035375 0
0.000851465 0.000477164 0
0.00083025 0.00035125 0
0.000822824 0.000368659 0
0.00081446 0.000357362 0
0.000805884 0.000371794 0
0.000753471 0.000477524 0
0.000738313 0.000473927 0
0.000739102 0.000461526 0
0.00079826 0.000358588 0
0.000788607 0.000376287 0
0.000781733 0.000357987 0
0.000816783 0.000384471 0
0.000807975 0.000404095 0
0.000752138 0.000404775 0
0.000767682 0.000417043 0
0.000749617 0.000421803 0
0.000752903 0.000384008 0
0.000738293 0.000393136 0
0.000772614 0.000394048 0
0.00076863 0.000371878 0
0.000765995 0.000354121 0
0.000779 0.000345 0
0.00071811 0.000453059 0
0.000738069 0.000437967 0
0.000752085 0.000365972 0
0.000728123 0.000374583 0
0.000741845 0.000354664 0
[...]
CELL_DATA 58684
VECTORS velocity DOUBLE
67.7882 4.26099e-16 0
67.7882 0 0
67.7882 1.13789e-15 0
67.7882 2.27579e-15 0
67.7882 -2.27579e-15 0
67.7882 1.13789e-15 0
67.7882 -1.13789e-15 0
67.7882 0 0
67.7882 8.17344e-17 0
67.7882 -1.16216e-16 0
67.7882 0 0
67.7882 -1.40592e-16 0
67.7882 0 0
67.7882 2.51413e-16 0
67.7882 7.2257e-17 0
67.7882 0 0
67.7882 0 0
67.7882 0 0
67.7882 -7.40463e-17 0
67.7882 -1.9378e-16 0
67.7882 0 0
67.7882 0 0
67.7882 -1.44016e-16 0
67.7882 1.46078e-16 0
67.7882 0 0
67.7882 9.26044e-17 0
67.7882 -3.10944e-16 0
67.7882 -8.17344e-17 0
67.7882 -2.49039e-16 0
67.7882 0 0
67.7882 1.41944e-16 0
67.7882 2.85389e-16 0
67.7882 -9.92953e-17 0
67.7882 -2.13316e-16 0
67.7882 -4.26422e-17 0
67.7882 -1.18216e-16 0
67.7882 -1.27999e-16 0
67.7882 1.08278e-16 0
67.7882 2.56026e-15 0
67.7882 0 0
67.7882 0 0
67.7882 3.20033e-16 0
67.7882 0 0
67.7882 0 0
67.7882 1.89649e-16 0
67.7882 3.79298e-16 0
67.7882 0 0
67.7882 0 0
67.7882 -1.42237e-16 0
67.7882 2.0689e-16 0
67.7882 -2.27579e-16 0
67.7882 0 0
67.7882 5.68947e-17 0
67.7882 0 0
67.7882 -1.89649e-16 0
67.7882 -2.37061e-17 0
67.7882 0 0
67.7882 -1.62556e-16 0
67.7882 1.62556e-16 0
67.7882 0 0
67.7882 9.98153e-17 0
67.7882 -3.79298e-16 0
67.7882 1.60685e-16 0
67.7882 -8.31794e-17 0
67.7882 8.79049e-17 0
67.7882 -3.51619e-16 0
67.7882 2.82765e-16 0
67.7882 8.2014e-17 0
67.7882 -1.41101e-16 0
67.7882 2.66965e-16 0
67.7882 1.4678e-16 0
67.7882 -4.05664e-16 0
67.7882 0 0
67.7882 0 0
67.7882 1.79637e-16 0
67.7882 1.57784e-16 0
67.7882 -1.31535e-16 0
67.7882 -6.60001e-17 0
67.7882 5.027e-17 0
67.7882 1.0778e-16 0
67.7882 7.90649e-17 0
67.7882 7.11149e-17 0
67.7882 8.98077e-17 0
67.7882 -1.12813e-16 0
67.7882 1.43574e-16 0
67.7882 -6.28675e-17 0
67.7882 7.30579e-17 0
67.7882 -3.98061e-16 0
67.7882 -1.79471e-16 0
67.7882 1.84268e-16 0
67.7882 -2.19557e-16 0
67.7882 -1.07594e-16 0
67.7882 -1.05661e-16 0
67.7882 1.66796e-16 0
67.7882 0 0
67.7882 -1.04222e-16 0
67.7882 -1.52519e-16 0
67.7882 2.72799e-16 0
67.7882 1.9994e-16 0
67.7882 -2.33284e-16 0
67.7882 0 0
67.7882 2.27908e-16 0
67.7882 -1.01497e-16 0
67.7882 0 0
67.7882 -4.23279e-16 0
67.7882 1.57514e-16 0
67.7882 -1.95748e-16 0
67.7882 0 0
67.7882 -4.46978e-16 0
67.7882 0 0
67.7882 7.77055e-17 0
67.7882 1.62277e-16 0
67.7882 -8.90675e-17 0
67.7882 -2.30571e-16 0
67.7882 0 0
67.7882 1.2297e-16 0
67.7882 1.40975e-16 0
67.7882 -9.70226e-17 0
67.7882 7.04892e-17 0
67.7882 -2.83214e-16 0
67.7882 0 0
67.7882 0 0
67.7882 -8.59594e-17 0
67.7882 2.19827e-16 0
67.7882 1.8513e-16 0
67.7882 0 0
67.7882 -2.4373e-16 0
67.7882 1.80698e-16 0
67.7882 2.29562e-16 0
67.7882 -1.70391e-16 0
67.7882 -6.18936e-17 0
67.7882 0 0
67.7882 -1.12216e-16 0
67.7882 2.53963e-16 0
67.7882 -1.0716e-16 0
67.7882 -2.49814e-16 0
67.7882 1.53537e-16 0
67.7882 1.96496e-16 0
67.7882 1.55419e-16 0
67.7882 1.48163e-16 0
67.7882 0 0
67.7882 2.23794e-16 0
67.7882 0 0
67.7882 1.25284e-16 0
67.7882 1.04491e-16 0
67.7882 -1.78691e-17 0
67.7882 2.79963e-16 0
67.7882 -1.49946e-16 0
67.7882 -1.0242e-16 0
67.7882 0 0
67.7882 -5.73087e-16 0
67.7882 -1.47886e-16 0
67.7882 1.37552e-16 0
67.7882 -1.15149e-16 0
67.7882 2.14414e-16 0
67.7882 0 0
67.7882 -8.01392e-17 0
67.7882 1.84958e-16 0
67.7882 4.65854e-17 0
67.7882 6.9014e-17 0
67.7882 1.0021e-16 0
67.7882 0 0
67.7882 1.02272e-16 0
67.7882 0 0
67.7882 -8.42205e-17 0
67.7882 0 0
67.7882 0 0
67.7882 0 0
67.7882 1.65713e-16 0
67.7882 -4.45229e-17 0
67.7882 0 0
67.7882 1.16939e-16 0
67.7882 -6.19537e-17 0
67.7882 2.87945e-16 0
67.7882 0 0
67.7882 0 0
67.7882 -2.38684e-16 0
67.7882 -1.4583e-16 0
67.7882 3.95494e-16 0
67.7882 -1.23011e-16 0
67.7882 -3.53665e-16 0
67.7882 -7.91317e-17 0
67.7882 -2.67722e-16 0
67.7882 0 0
67.7882 2.05403e-16 0
67.7882 1.63607e-16 0
67.7882 0 0
67.7882 -7.64935e-18 0
67.7882 1.01128e-16 0
67.7882 -4.34876e-16 0
67.7882 -7.95776e-17 0
67.7882 -2.23925e-16 0
67.7882 0 0
67.7882 -1.84557e-16 0
67.7882 0 0
67.7882 0 0
67.7882 -1.26509e-16 0
67.7882 1.44363e-16 0
67.7882 -1.4247e-16 0
67.7882 0 0
67.7882 0 0
67.7882 -3.1873e-17 0
67.7882 0 0
67.7882 -4.24895e-16 0
67.7882 -1.93811e-16 0
67.7882 1.23969e-16 0
67.7882 -5.91225e-17 0
67.7882 -9.38267e-17 0
67.7882 0 0
67.7882 8.69491e-17 0
67.7882 9.54001e-17 0
67.7882 -1.18944e-16 0
67.7882 -1.02973e-16 0
67.7882 -2.73457e-16 0
67.7882 -1.43201e-16 0
67.7882 0 0
67.7882 3.56089e-17 0
67.7882 -1.12347e-16 0
67.7882 3.03967e-17 0
67.7882 1.67032e-16 0
67.7882 -6.34464e-17 0
67.7882 -4.54128e-16 0
67.7882 -2.81951e-17 0
67.7882 9.37041e-17 0
67.7882 0 0
67.7882 1.23499e-16 0
67.7882 0 0
67.7882 3.40276e-16 0
67.7882 0 0
67.7882 -1.593e-16 0
67.7882 1.43847e-16 0
67.7882 -1.03779e-16 0
67.7882 -9.61287e-17 0
67.7882 -5.11453e-17 0
67.7882 0 0
67.7882 -3.44884e-16 0
67.7882 1.2148e-16 0
67.7882 1.05374e-16 0
67.7882 1.20876e-16 0
67.7882 1.19587e-16 0
67.7882 -9.69978e-17 0
67.7882 3.28498e-16 0
67.7882 -1.23419e-16 0
67.7882 2.20823e-16 0
67.7882 2.19773e-16 0
67.7882 0 0
67.7882 3.8945e-16 0
67.7882 1.89567e-16 0
67.7882 0 0
67.7882 -3.4443e-16 0
67.7882 -1.39181e-16 0
67.7882 -1.79001e-16 0
67.7882 0 0
67.7882 -2.42609e-16 0
67.7882 0 0
67.7882 -1.3241e-16 0
67.7882 1.46234e-16 0
67.7882 1.17596e-16 0
67.7882 1.15396e-16 0
67.7882 0 0
67.7882 -9.91856e-17 0
67.7882 0 0
67.7882 -3.7203e-16 0
67.7882 -3.70214e-16 0
67.7882 1.95613e-16 0
67.7882 0 0
67.7882 0 0
67.7882 0 0
67.7882 0 0
67.7882 3.30597e-16 0
67.7882 -8.10879e-17 0
67.7882 0 0
67.7882 1.2318e-16 0
67.7882 0 0
67.7882 -2.07553e-16 0
67.7882 5.89315e-17 0
67.7882 0 0
67.7882 1.18524e-16 0
67.7882 0 0
67.7882 -2.52017e-16 0
67.7882 0 0
67.7882 3.80126e-16 0
67.7882 7.45776e-17 0
67.7882 4.1509e-16 0
67.7882 2.04852e-16 0
67.7882 -9.63784e-17 0
67.7882 3.5855e-16 0
67.7882 0 0
67.7882 0 0
67.7882 9.82245e-17 0
67.7882 0 0
67.7882 0 0
67.7882 0 0
67.7882 1.1228e-16 0
67.7882 3.454e-16 0
67.7882 8.63501e-17 0
67.7882 -1.04941e-16 0
67.7882 -4.59369e-17 0
67.7882 -1.25682e-16 0
67.7882 -3.80224e-17 0
67.7882 -9.35669e-17 0
67.7882 0 0
67.7882 0 0
67.7882 0 0
67.7882 1.83284e-16 0
67.7882 0 0
67.7882 0 0
67.7882 0 0
67.7882 0 0
67.7882 3.03449e-16 0
67.7882 0 0
67.7882 2.29329e-16 0
67.7882 -2.27579e-15 0
67.7882 2.84474e-16 0
67.7882 0 0
67.7882 -5.68947e-16 0
67.7882 -1.89649e-16 0
67.7882 3.79298e-16 0
67.7882 -3.79298e-16 0
67.7882 -3.79298e-16 0
67.7882 -1.26433e-16 0
67.7882 0 0
67.7882 2.84474e-16 0
67.7882 -1.55167e-16 0
67.7882 2.27579e-16 0
67.7882 0 0
67.7882 0 0
67.7882 -8.12782e-17 0
67.7882 1.89649e-16 0
67.7882 0 0
67.7882 -7.11184e-17 0
67.7882 1.62556e-16 0
67.7882 -1.62556e-16 0
67.7882 6.22286e-17 0
67.7882 -1.82355e-17 0
67.7882 0 0
67.7882 1.7581e-16 0
67.7882 -1.60685e-16 0
67.7882 3.51619e-16 0
67.7882 -1.41383e-16 0
67.7882 1.05826e-16 0
67.7882 -1.89483e-16 0
67.7882 -2.66965e-16 0
67.7882 -1.69027e-16 0
67.7882 3.74234e-16 0
67.7882 1.57211e-16 0
67.7882 3.14422e-16 0
67.7882 0 0
67.7882 4.6767e-17 0
67.7882 -9.86148e-17 0
67.7882 1.64128e-16 0
67.7882 6.57677e-17 0
67.7882 0 0
67.7882 1.68217e-16 0
67.7882 -1.0778e-16 0
67.7882 -9.91524e-17 0
67.7882 1.12813e-16 0
67.7882 0 0
67.7882 -1.6152e-16 0
67.7882 0 0
67.7882 -1.45297e-16 0
67.7882 0 0
67.7882 1.31229e-16 0
67.7882 -1.81477e-16 0
67.7882 1.79222e-16 0
67.7882 0 0
67.7882 3.65145e-17 0
67.7882 1.65162e-16 0
67.7882 -2.5692e-16 0
67.7882 9.84318e-17 0
67.7882 0 0
67.7882 -4.99976e-17 0
67.7882 -9.99952e-17 0
67.7882 -2.29752e-16 0
67.7882 0 0
67.7882 2.97933e-16 0
67.7882 4.82852e-17 0
67.7882 9.72709e-18 0
67.7882 0 0
67.7882 7.07223e-17 0
67.7882 0 0
67.7882 0 0
67.7882 -2.25311e-16 0
67.7882 -1.18054e-16 0
67.7882 0 0
67.7882 1.38293e-16 0
67.7882 -2.36978e-16 0
67.7882 -2.04122e-17 0
67.7882 4.11003e-16 0
67.7882 2.90615e-16 0
67.7882 0 0
67.7882 6.98123e-17 0
67.7882 -1.56581e-16 0
67.7882 -1.62469e-16 0
67.7882 -1.00079e-16 0
67.7882 0 0
67.7882 -1.76495e-16 0
67.7882 4.49865e-17 0
67.7882 6.39936e-16 0
67.7882 -8.18187e-17 0
67.7882 -1.44704e-16 0
67.7882 -1.44213e-16 0
67.7882 1.56903e-16 0
67.7882 1.54205e-16 0
67.7882 0 0
67.7882 2.28982e-16 0
67.7882 0 0
67.7882 1.91875e-16 0
67.7882 1.02693e-16 0
67.7882 -1.61739e-16 0
67.7882 9.39236e-17 0
67.7882 -2.05319e-16 0
67.7882 1.28148e-16 0
67.7882 1.28289e-16 0
67.7882 0 0
67.7882 7.84094e-17 0
67.7882 1.4975e-16 0
67.7882 3.17333e-17 0
67.7882 1.5066e-16 0
67.7882 0 0
67.7882 1.15881e-16 0
67.7882 0 0
67.7882 -2.3929e-16 0
67.7882 0 0
67.7882 -4.90226e-16 0
67.7882 0 0
67.7882 0 0
67.7882 -3.74369e-16 0
67.7882 -8.88546e-17 0
67.7882 1.98537e-16 0
67.7882 -1.34282e-16 0
67.7882 -1.42003e-16 0
67.7882 1.05627e-16 0
67.7882 0 0
67.7882 1.78748e-16 0
67.7882 -6.74958e-17 0
67.7882 -2.08553e-16 0
67.7882 3.52268e-16 0
67.7882 2.52506e-16 0
67.7882 -1.31076e-16 0
67.7882 -1.76247e-16 0
67.7882 -2.76747e-16 0
67.7882 1.13062e-16 0
67.7882 -2.27607e-16 0
67.7882 -1.30601e-16 0
67.7882 2.33931e-16 0
67.7882 -1.03608e-16 0
67.7882 1.51034e-16 0
67.7882 0 0
67.7882 0 0
67.7882 -2.59652e-16 0
67.7882 -3.01985e-17 0
67.7882 6.08971e-17 0
67.7882 -3.41298e-16 0
67.7882 -2.06684e-16 0
67.7882 1.66859e-16 0
67.7882 -8.40788e-17 0
67.7882 1.32808e-16 0
67.7882 2.4277e-16 0
67.7882 -2.52483e-16 0
67.7882 0 0
67.7882 0 0
67.7882 0 0
67.7882 0 0
67.7882 -2.50778e-16 0
67.7882 -1.89284e-16 0
67.7882 0 0
67.7882 -2.21322e-16 0
67.7882 0 0
67.7882 2.28179e-16 0
67.7882 3.02952e-16 0
67.7882 0 0
67.7882 0 0
67.7882 -1.00688e-16 0
67.7882 -2.54538e-16 0
67.7882 2.09647e-16 0
67.7882 0 0
67.7882 -3.95628e-16 0
67.7882 -1.19192e-16 0
67.7882 0 0
67.7882 -1.38984e-16 0
67.7882 -2.25353e-17 0
67.7882 4.633e-17 0
67.7882 0 0
67.7882 4.88181e-17 0
67.7882 6.13204e-17 0
67.7882 -1.62649e-16 0
67.7882 0 0
67.7882 0 0
67.7882 0 0
67.7882 -2.12616e-16 0
67.7882 1.50521e-16 0
67.7882 1.12541e-16 0
67.7882 -9.76645e-17 0
67.7882 0 0
67.7882 -2.9821e-17 0
67.7882 0 0
67.7882 -1.24786e-16 0
67.7882 0 0
67.7882 -1.47663e-16 0
67.7882 0 0
67.7882 -2.05955e-16 0
67.7882 -2.93414e-16 0
67.7882 8.10305e-17 0
67.7882 4.4679e-16 0
67.7882 2.42499e-16 0
67.7882 0 0
67.7882 -1.48448e-16 0
67.7882 9.47043e-17 0
67.7882 0 0
67.7882 5.75314e-17 0
67.7882 3.24802e-16 0
67.7882 0 0
67.7882 0 0
67.7882 7.8524e-17 0
67.7882 6.64847e-17 0
67.7882 0 0
67.7882 0 0
67.7882 0 0
67.7882 2.13807e-16 0
67.7882 0 0
67.7882 0 0
67.7882 -1.00956e-16 0
67.7882 -6.18788e-16 0
67.7882 -2.62101e-16 0
67.7882 3.39736e-16 0
67.7882 -1.283e-16 0
67.7882 0 0
67.7882 7.89086e-17 0
67.7882 3.74135e-16 0
67.7882 4.55649e-16 0
67.7882 5.30544e-17 0
67.7882 -1.84323e-16 0
67.7882 -1.22062e-16 0
67.7882 -2.47222e-16 0
67.7882 -2.79734e-17 0
67.7882 -9.70819e-17 0
67.7882 -1.31663e-16 0
67.7882 2.28479e-17 0
67.7882 -3.44766e-16 0
67.7882 1.89484e-16 0
67.7882 -1.96272e-16 0
67.7882 9.07304e-17 0
67.7882 1.69095e-16 0
67.7882 -2.55917e-16 0
67.7882 0 0
67.7882 2.43495e-16 0
67.7882 1.35182e-16 0
67.7882 0 0
67.7882 -2.04378e-16 0
67.7882 -4.11632e-17 0
67.7882 2.25204e-16 0
67.7882 2.98277e-16 0
67.7882 -5.33105e-17 0
67.7882 1.16901e-16 0
67.7882 -3.72666e-16 0
67.7882 -8.13526e-17 0
67.7882 9.91981e-17 0
67.7882 0 0
67.7882 -7.01932e-17 0
67.7882 2.24851e-16 0
67.7882 0 0
67.7882 0 0
67.7882 0 0
67.7882 -3.59758e-16 0
67.7882 -2.10673e-16 0
67.7882 -1.35036e-16 0
67.7882 1.78983e-16 0
67.7882 0 0
67.7882 -3.49721e-16 0
67.7882 -1.33724e-16 0
67.7882 -2.19328e-16 0
67.7882 -9.04097e-17 0
67.7882 -2.67846e-16 0
67.7882 0 0
67.7882 1.61342e-16 0
67.7882 1.22125e-16 0
67.7882 -2.63894e-16 0
67.7882 -1.62344e-16 0
67.7882 0 0
67.7882 3.82858e-16 0
67.7882 -1.42711e-16 0
67.7882 -3.24817e-16 0
67.7882 -9.10306e-17 0
67.7882 -5.76742e-16 0
67.7882 1.40741e-16 0
67.7882 2.91855e-16 0
67.7882 -5.86079e-17 0
67.7882 -8.08402e-17 0
67.7882 4.12478e-16 0
67.7882 5.80737e-16 0
67.7882 -7.37986e-17 0
67.7882 3.91993e-17 0
67.7882 8.5908e-17 0
67.7882 4.00525e-16 0
67.7882 -1.23518e-16 0
67.7882 -2.21609e-16 0
67.7882 -4.48494e-17 0
67.7882 3.21651e-16 0
67.7882 4.49316e-17 0
67.7882 -1.87722e-16 0
67.7882 0 0
67.7882 1.35068e-16 0
67.7882 -4.75365e-16 0
67.7882 2.01165e-16 0
67.7882 -3.80937e-16 0
67.7882 -1.99456e-16 0
67.7882 1.61203e-16 0
67.7882 0 0
67.7882 0 0
67.7882 -1.93208e-16 0
67.7882 1.89417e-16 0
67.7882 2.84662e-16 0
67.7882 -9.89977e-17 0
67.7882 0 0
67.7882 -2.94264e-17 0
67.7882 0 0
67.7882 5.40876e-17 0
67.7882 -5.65733e-17 0
67.7882 1.67726e-16 0
67.7882 0 0
67.7882 0 0
67.7882 -2.55048e-16 0
67.7882 9.51435e-17 0
67.7882 -9.4831e-17 0
67.7882 -1.94218e-16 0
67.7882 0 0
67.7882 2.6039e-16 0
67.7882 0 0
67.7882 3.82429e-17 0
67.7882 -8.19168e-16 0
67.7882 -2.30422e-16 0
67.7882 1.22124e-16 0
67.7882 -1.56927e-16 0
67.7882 3.05792e-16 0
67.7882 1.23968e-16 0
67.7882 0 0
67.7882 7.48465e-17 0
67.7882 0 0
67.7882 -1.41877e-16 0
67.7882 0 0
67.7882 5.06266e-16 0
67.7882 0 0
67.7882 0 0
67.7882 -2.13672e-16 0
67.7882 0 0
67.7882 3.13797e-16 0
67.7882 1.91458e-16 0
67.7882 -1.31958e-16 0
67.7882 1.5268e-16 0
67.7882 0 0
67.7882 0 0
67.7882 0 0
67.7882 -6.55925e-16 0
67.7882 3.74971e-16 0
67.7882 1.79088e-16 0
67.7882 -1.07064e-16 0
67.7882 -1.76663e-16 0
67.7882 0 0
67.7882 -1.66412e-16 0
67.7882 2.72894e-16 0
67.7882 2.51201e-16 0
67.7882 -2.24543e-16 0
67.7882 0 0
67.7882 2.71551e-17 0
67.7882 -1.91648e-16 0
67.7882 1.17929e-16 0
67.7882 2.9648e-16 0
67.7882 8.05708e-17 0
67.7882 2.85664e-16 0
67.7882 -1.64134e-16 0
67.7882 -1.86462e-16 0
67.7882 0 0
67.7882 9.98455e-17 0
67.7882 -3.41597e-16 0
67.7882 1.11934e-16 0
67.7882 0 0
67.7882 6.88198e-17 0
67.7882 7.54034e-17 0
67.7882 -2.8147e-16 0
67.7882 1.12979e-16 0
67.7882 1.7155e-16 0
67.7882 1.05763e-16 0
67.7882 -2.58967e-16 0
67.7882 9.65024e-17 0
67.7882 -1.18702e-16 0
67.7882 0 0
67.7882 0 0
67.7882 2.66773e-16 0
67.7882 8.95597e-17 0
67.7882 1.97046e-16 0
67.7882 0 0
67.7882 0 0
67.7882 0 0
67.7882 -4.08875e-16 0
67.7882 1.46952e-16 0
67.7882 0 0
67.7882 -3.73058e-16 0
67.7882 0 0
67.7882 0 0
67.7882 1.02615e-16 0
67.7882 1.36253e-16 0
67.7882 -4.16204e-16 0
67.7882 0 0
67.7882 -1.1012e-16 0
67.7882 5.44528e-16 0
67.7882 -1.3589e-16 0
67.7882 -1.1475e-16 0
67.7882 0 0
67.7882 1.15287e-16 0
67.7882 0 0
67.7882 3.59126e-16 0
67.7882 5.68648e-16 0
67.7882 1.67648e-16 0
67.7882 7.87571e-16 0
67.7882 -1.92991e-16 0
67.7882 1.35433e-16 0
67.7882 0 0
67.7882 -8.97187e-17 0
67.7882 -8.07665e-17 0
67.7882 0 0
67.7882 -5.61665e-16 0
67.7882 1.14781e-16 0
67.7882 4.93083e-16 0
67.7882 9.62692e-17 0
67.7882 8.06691e-17 0
67.7882 2.60221e-16 0
67.7882 2.50242e-16 0
67.7882 0 0
67.7882 7.78752e-17 0
67.7882 -1.80512e-16 0
67.7882 -1.33321e-16 0
67.7882 -4.42499e-16 0
67.7882 4.362e-16 0
67.7882 -1.27893e-16 0
67.7882 0 0
67.7882 -2.64205e-16 0
67.7882 0 0
67.7882 -1.8446e-16 0
67.7882 0 0
67.7882 -1.32986e-16 0
67.7882 -1.72846e-16 0
67.7882 3.86691e-16 0
67.7882 -2.44687e-16 0
67.7882 1.08138e-16 0
67.7882 0 0
67.7882 -2.46706e-16 0
67.7882 0 0
67.7882 -3.75723e-16 0
67.7882 -1.54415e-16 0
67.7882 -1.7939e-16 0
67.7882 1.61603e-16 0
67.7882 1.1612e-16 0
67.7882 0 0
67.7882 8.63003e-17 0
67.7882 -4.81364e-16 0
67.7882 -2.61968e-16 0
67.7882 -2.01e-16 0
67.7882 0 0
67.7882 -1.41581e-16 0
67.7882 0 0
67.7882 3.19687e-17 0
67.7882 5.29677e-16 0
67.7882 6.59267e-17 0
67.7882 8.84564e-17 0
67.7882 -3.94277e-16 0
67.7882 -2.83665e-17 0
67.7882 0 0
67.7882 0 0
67.7882 1.28157e-16 0
67.7882 4.39341e-16 0
67.7882 5.70625e-17 0
67.7882 7.4063e-17 0
67.7882 -4.67431e-16 0
67.7882 -9.56316e-17 0
67.7882 0 0
67.7882 -1.13816e-16 0
67.7882 -9.97786e-17 0
67.7882 1.11998e-16 0
67.7882 1.57297e-16 0
67.7882 1.13803e-16 0
67.7882 1.56716e-16 0
67.7882 -2.09933e-16 0
67.7882 1.56193e-16 0
67.7882 -2.30087e-16 0
67.7882 7.00887e-17 0
67.7882 -8.53011e-17 0
67.7882 -3.50444e-16 0
67.7882 -9.57138e-17 0
67.7882 0 0
67.7882 3.3491e-16 0
67.7882 -9.87844e-17 0
67.7882 -9.89991e-17 0
67.7882 8.29999e-17 0
67.7882 0 0
67.7882 0 0
67.7882 0 0
67.7882 -7.17897e-17 0
67.7882 0 0
67.7882 -2.53912e-16 0
67.7882 1.62906e-16 0
67.7882 8.73871e-17 0
67.7882 0 0
67.7882 -1.47403e-16 0
67.7882 -8.30443e-17 0
67.7882 -1.59459e-16 0
67.7882 1.24758e-16 0
67.7882 0 0
67.7882 0 0
67.7882 0 0
67.7882 0 0
67.7882 5.08277e-17 0
67.7882 -9.22581e-17 0
67.7882 -1.45935e-16 0
67.7882 -5.29501e-17 0
67.7882 0 0
67.7882 -1.4635e-16 0
67.7882 3.29871e-16 0
67.7882 1.2247e-16 0
67.7882 9.33941e-17 0
67.7882 1.34286e-16 0
67.7882 -7.10838e-17 0
67.7882 0 0
67.7882 0 0
67.7882 -3.80373e-17 0
67.7882 -1.40066e-17 0
67.7882 2.37488e-16 0
67.7882 -5.65493e-17 0
67.7882 -1.47306e-16 0
67.7882 -3.42976e-16 0
67.7882 2.06319e-16 0
67.7882 -8.44352e-17 0
67.7882 8.27706e-17 0
67.7882 0 0
67.7882 3.38112e-16 0
67.7882 2.73263e-16 0
67.7882 -9.09301e-17 0
67.7882 7.61418e-17 0
67.7882 6.22263e-17 0
67.7882 -1.99837e-16 0
67.7882 6.82106e-17 0
67.7882 -9.88474e-17 0
67.7882 1.08765e-16 0
67.7882 -3.47479e-16 0
67.7882 9.58681e-17 0
67.7882 -1.50501e-16 0
67.7882 -1.71037e-16 0
67.7882 -1.11326e-16 0
67.7882 4.12429e-16 0
67.7882 2.88902e-16 0
67.7882 -7.21319e-17 0
67.7882 1.54926e-16 0
67.7882 7.86955e-17 0
67.7882 -1.52436e-16 0
67.7882 -7.56387e-17 0
67.7882 9.76414e-17 0
67.7882 9.0227e-17 0
67.7882 -1.69766e-16 0
67.7882 1.98107e-16 0
67.7882 0 0
67.7882 0 0
67.7882 -2.89244e-16 0
67.7882 0 0
67.7882 5.58583e-17 0
67.7882 1.45607e-16 0
67.7882 7.79706e-17 0
67.7882 -1.56166e-16 0
67.7882 1.21027e-16 0
67.7882 2.65744e-16 0
67.7882 0 0
67.7882 8.4747e-17 0
67.7882 4.74631e-17 0
67.7882 5.11827e-17 0
67.7882 0 0
67.7882 2.53752e-16 0
67.7882 1.78384e-16 0
67.7882 0 0
67.7882 0 0
67.7882 0 0
67.7882 0 0
67.7882 0 0
67.7882 -6.61198e-17 0
67.7882 9.43915e-17 0
67.7882 1.28198e-16 0
67.7882 0 0
67.7882 -1.45248e-16 0
67.7882 0 0
67.7882 -2.48816e-16 0
67.7882 0 0
67.7882 0 0
67.7882 1.88758e-16 0
67.7882 0 0
67.7882 3.10973e-16 0
67.7882 -4.77757e-17 0
67.7882 2.33124e-16 0
67.7882 -2.24365e-16 0
67.7882 0 0
67.7882 -4.10021e-16 0
67.7882 -1.69145e-16 0
67.7882 -4.17842e-17 0
67.7882 0 0
67.7882 4.6665e-16 0
67.7882 0 0
67.7882 0 0
67.7882 0 0
67.7882 0 0
67.7882 0 0
67.7882 1.40915e-16 0
67.7882 -2.24442e-16 0
67.7882 0 0
67.7882 1.06327e-16 0
67.7882 -8.2732e-17 0
67.7882 -4.74085e-17 0
67.7882 3.00002e-16 0
67.7882 1.61696e-16 0
67.7882 0 0
67.7882 0 0
67.7882 0 0
67.7882 3.40034e-16 0
67.7882 -2.24713e-16 0
67.7882 -1.6977e-16 0
67.7882 0 0
67.7882 1.35049e-16 0
67.7882 2.01126e-17 0
67.7882 -1.14191e-16 0
67.7882 -9.46092e-17 0
67.7882 0 0
67.7882 2.87283e-16 0
67.7882 0 0
67.7882 9.92616e-17 0
67.7882 -7.46333e-17 0
67.7882 -2.93297e-16 0
67.7882 3.14325e-16 0
67.7882 0 0
67.7882 1.22639e-16 0
67.7882 0 0
67.7882 -9.54485e-17 0
67.7882 0 0
67.7882 -1.42493e-16 0
67.7882 8.90057e-17 0
67.7882 1.15523e-16 0
67.7882 0 0
67.7882 0 0
67.7882 1.35452e-16 0
67.7882 -1.27091e-17 0
67.7882 0 0
67.7882 0 0
67.7882 4.97855e-17 0
67.7882 2.21833e-16 0
67.7882 2.09266e-16 0
67.7882 -1.69789e-16 0
67.7882 0 0
67.7882 0 0
67.7882 1.66434e-16 0
67.7882 2.36536e-16 0
67.7882 1.08519e-16 0
67.7882 0 0
67.7882 -1.42114e-16 0
67.7882 -1.55293e-16 0
67.7882 -3.08844e-16 0
67.7882 0 0
67.7882 -1.22832e-16 0
67.7882 0 0
67.7882 5.94131e-17 0
67.7882 7.25062e-17 0
67.7882 1.89623e-16 0
67.7882 -1.16069e-16 0
67.7882 -8.73154e-17 0
67.7882 -2.4556e-16 0
67.7882 -1.39941e-16 0
67.7882 0 0
67.7882 9.48857e-17 0
67.7882 0 0
67.7882 -1.92124e-16 0
67.7882 -8.97529e-17 0
67.7882 -8.79601e-17 0
67.7882 2.33008e-16 0
67.7882 0 0
67.7882 7.58812e-17 0
67.7882 0 0
67.7882 1.66825e-16 0
67.7882 0 0
67.7882 -1.00928e-16 0
67.7882 -7.58364e-17 0
67.7882 0 0
67.7882 2.70467e-16 0
67.7882 1.84091e-16 0
67.7882 0 0
67.7882 1.9876e-16 0
67.7882 -2.22823e-16 0
67.7882 8.61024e-17 0
67.7882 0 0
67.7882 0 0
67.7882 1.83843e-16 0
67.7882 0 0
67.7882 -1.2574e-16 0
67.7882 1.06437e-16 0
67.7882 2.53098e-16 0
67.7882 0 0
67.7882 -2.86683e-16 0
67.7882 -2.14264e-16 0
67.7882 0 0
67.7882 1.91171e-16 0
67.7882 -4.06446e-16 0
67.7882 -1.43161e-16 0
67.7882 5.86722e-17 0
67.7882 0 0
67.7882 1.05673e-16 0
67.7882 -3.01771e-16 0
67.7882 -1.35758e-16 0
67.7882 0 0
67.7882 -1.83878e-16 0
67.7882 8.14064e-17 0
67.7882 -1.10037e-16 0
67.7882 0 0
67.7882 2.9205e-16 0
67.7882 9.81713e-17 0