# vtk DataFile Version 3.0
Unstructured Grid for Triangles
ASCII
DATASET UNSTRUCTURED_GRID
POINTS 29612 DOUBLE
-0.000272397 1.23686e-05 0
-0.000295789 9.5838e-06 0
-0.000277865 -3.1235e-06 0
0.002024 0.0005 0
0.00203975 0.00049875 0
0.00205 0.0005 0
0.00203975 -0.00049875 0
0.002024 -0.0005 0
0.00205 -0.0005 0
0.0020295 0.0004975 0
0.0020295 -0.0004975 0
0.00201925 0.00049625 0
0.00201925 -0.00049625 0
-0.000529747 -0.000479887 0
-0.00055 -0.0005 0
-0.000524 -0.0005 0
-0.000505983 -0.000484325 0
-0.000498 -0.0005 0
-0.000472 -0.0005 0
-0.000483864 -0.000487761 0
-0.000446 -0.0005 0
-0.000459 -0.000484239 0
-0.000429453 -0.000424878 0
-0.000447486 -0.000420717 0
-0.000441829 -0.000436609 0
-0.000512578 -0.000462101 0
-0.000493078 -0.000453594 0
-0.00050706 -0.000439006 0
-0.000419243 -0.000477545 0
-0.000440307 -0.000471837 0
-0.00043691 -0.000486724 0
-0.000516129 -0.000420948 0
-0.000495355 -0.000415432 0
-0.000511646 -0.00040128 0
-0.000394697 -0.000481197 0
-0.000406302 -0.000455143 0
-0.000537257 -0.000388197 0
-0.000531099 -0.000407297 0
-0.000523982 -0.000388328 0
-0.000370063 -0.000472956 0
-0.000368 -0.0005 0
-0.00035308 -0.000485302 0
-0.0005072 -0.00037867 0
-0.000485506 -0.000383975 0
-0.000490949 -0.000359622 0
-0.000337127 -0.000484331 0
-0.000316 -0.0005 0
-0.000326495 -0.00047415 0
-0.00055 -0.00035 0
-0.000531201 -0.000370361 0
-0.000528367 -0.000346817 0
-0.000363898 -0.000448809 0
-0.000383315 -0.000460336 0
-3.26269e-05 -0.000415503 0
-5.99662e-05 -0.000409556 0
-5.46944e-05 -0.000429488 0
-0.000529747 0.000479887 0
-0.00055 0.0005 0
-0.00055 0.000475 0
-0.00055 0.00045 0
-0.000534834 0.000429171 0
-0.000526943 0.000442611 0
-0.000534026 0.000460176 0
-0.000531099 0.000407297 0
-0.000511672 0.000401178 0
-0.000516129 0.000420948 0
-0.000524 0.0005 0
-0.000505983 0.000484325 0
-0.000531201 0.000370361 0
-0.0005072 0.00037867 0
-0.000523982 0.000388328 0
-0.00048341 0.000469132 0
-0.000483679 0.000487539 0
-0.000528367 0.000346817 0
-0.00055 0.000325 0
-0.000525657 0.000328474 0
-0.000498 0.0005 0
-0.000530382 0.0003125 0
-0.000419243 0.000477545 0
-0.000440015 0.00047335 0
-0.000425917 0.000463678 0
-0.000435138 0.000262661 0
-0.000414982 0.000274462 0
-0.000435654 0.000285217 0
-0.000459 0.000484239 0
-0.000436852 0.000487027 0
-0.000446 0.0005 0
-0.000533308 0.000292503 0
-0.00055 0.000275 0
-0.000523377 0.000276953 0
-0.000425282 0.000446352 0
-0.000409368 0.000435728 0
-0.000406302 0.000455143 0
0.002009 0.000495 0
0.001998 0.0005 0
0.00199875 0.00049375 0
0.0019885 0.0004925 0
0.001972 0.0005 0
0.00197825 0.00049125 0
0.001968 0.00049 0
0.00195775 0.00048875 0
0.001946 0.0005 0
0.0019475 0.0004875 0
0.00193725 0.00048625 0
0.00192 0.0005 0
0.001927 0.000485 0
0.00191675 0.00048375 0
0.0019065 0.0004825 0
0.001894 0.0005 0
0.00189625 0.00048125 0
0.001886 0.00048 0
0.001868 0.0005 0
0.00187575 0.00047875 0
0.0018655 0.0004775 0
0.00185515 0.00048575 0
0.001842 0.0005 0
0.001845 0.000475 0
0.00185525 0.00047625 0
0.00182564 0.0004829 0
0.001816 0.0005 0
0.0018245 0.0004725 0
0.00183475 0.00047375 0
0.00181425 0.00047125 0
0.00180295 0.000482657 0
0.00179 0.0005 0
0.00179375 0.00046875 0
0.001804 0.00047 0
0.00178168 0.000480619 0
0.001764 0.0005 0
0.00177325 0.00046625 0
0.0017835 0.0004675 0
0.00176428 0.000476631 0
0.001763 0.000465 0
0.001738 0.0005 0
0.001751 0.000484164 0
0.00175275 0.00046375 0
0.00174025 0.000475632 0
0.001712 0.0005 0
0.00172615 0.000478449 0
0.001722 0.00046 0
0.00173225 0.00046125 0
0.0017015 0.0004575 0
0.00171243 0.00047381 0
0.00169554 0.000479999 0
0.001686 0.0005 0
0.00167507 0.000479751 0
0.00168498 0.000464861 0
0.00166 0.0005 0
0.0016558 0.000471459 0
0.00167135 0.000462887 0
0.001681 0.000455 0
0.0016605 0.0004525 0
0.00167075 0.00045375 0
0.00164059 0.000461599 0
0.0016394 0.000479551 0
0.00162881 0.00046615 0
0.00162975 0.00044875 0
0.00165025 0.00045125 0
0.00164 0.00045 0
0.00161754 0.000458641 0
0.00161722 0.000478101 0
0.00159956 0.000458294 0
0.00160925 0.00044625 0
0.0016195 0.0004475 0
0.00157667 0.000460322 0
0.00158875 0.00044375 0
0.00159194 0.000480155 0
0.001599 0.000445 0
0.0015785 0.0004425 0
0.00155808 0.000456757 0
0.00155647 0.000476701 0
0.00154059 0.000466642 0
0.00153756 0.000450083 0
0.00154839 0.000450446 0
0.00156825 0.00044125 0
0.00151954 0.000480508 0
0.00154052 0.00048477 0
0.00153 0.0005 0
0.00154775 0.00043875 0
0.00152142 0.000456625 0
0.00152821 0.000445753 0
0.0015375 0.0004375 0
0.001504 0.0005 0
0.00149644 0.000485168 0
0.00151787 0.000443178 0
0.00152725 0.00043625 0
0.00150675 0.00043375 0
0.001517 0.000435 0
0.00148119 0.000450887 0
0.00148072 0.000475756 0
0.00146584 0.000463516 0
0.00150008 0.00046396 0
0.00149351 0.00044543 0
0.0015061 0.000446252 0
0.001476 0.00043 0
0.00148625 0.00043125 0
0.00146492 0.000482975 0
0.00144888 0.000473562 0
0.00146676 0.000444259 0
0.00145255 0.000453656 0
0.00145652 0.000438669 0
0.00141401 0.000479821 0
0.001426 0.0005 0
0.0014 0.0005 0
0.00144374 0.000438862 0
0.0014555 0.0004275 0
0.001435 0.000425 0
0.00144525 0.00042625 0
0.00142746 0.000438121 0
0.00141288 0.000443191 0
0.00141707 0.000432778 0
0.0013921 0.000438992 0
0.00140355 0.00045932 0
0.00138302 0.00045922 0
0.00142912 0.000458869 0
0.00140592 0.000430037 0
0.0014145 0.0004225 0
0.00136458 0.00045869 0
0.00137106 0.00044063 0
0.001394 0.00042 0
0.00138259 0.000428915 0
0.00137484 0.000477094 0
0.00139166 0.000478902 0
0.0013586 0.000478984 0
0.00133449 0.000478649 0
0.00134717 0.000461848 0
0.00137256 0.000425134 0
0.00135323 0.000424541 0
0.00136325 0.00041625 0
0.00136122 0.00042876 0
0.00131206 0.000447284 0
0.00133168 0.000456738 0
0.00131773 0.000465243 0
0.00134756 0.000440343 0
0.00132747 0.000436463 0
0.00133483 0.000426786 0
0.00131081 0.00041867 0
0.00132382 0.000422815 0
0.00131507 0.00043122 0
0.00131059 0.000480123 0
0.0013325 0.0004125 0
0.0012915 0.0004075 0
0.0012982 0.000418199 0
0.00128915 0.000426216 0
0.00126366 0.000447574 0
0.00127331 0.000430908 0
0.00128781 0.000444872 0
0.00125336 0.000428376 0
0.00130218 0.000431077 0
0.00127894 0.000416344 0
0.00124774 0.000469608 0
0.00127668 0.000464148 0
0.00126591 0.00048331 0
0.00126722 0.000418415 0
0.00125768 0.000411931 0
0.00124326 0.000413546 0
0.0012505 0.0004025 0
0.00122408 0.000450118 0
0.00120276 0.000447432 0
0.0012139 0.000432235 0
0.00124336 0.000444132 0
0.00123056 0.000427595 0
0.00122977 0.000409049 0
0.0012185 0.000469217 0
0.00122676 0.000485947 0
0.00120525 0.000486094 0
0.00121479 0.000413153 0
0.00119547 0.000424221 0
0.00120249 0.000407448 0
0.00119925 0.00039625 0
0.00119346 0.000406114 0
0.00117479 0.000447279 0
0.00114726 0.000445259 0
0.0011571 0.000427814 0
0.00119443 0.000466611 0
0.00117447 0.000421596 0
0.00118421 0.00040752 0
0.00117409 0.000404437 0
0.00116775 0.000470073 0
0.001179 0.0004855 0
0.00115473 0.000484802 0
0.0011685 0.0003925 0
0.00117875 0.00039375 0
0.00115454 0.000400551 0
0.001148 0.00039 0
0.00115825 0.00039125 0
0.00111703 0.000423398 0
0.00113786 0.000426731 0
0.00112589 0.000443871 0
0.00113234 0.000406671 0
0.00114754 0.000413371 0
0.001106 0.000442326 0
0.00109703 0.000424261 0
0.0011275 0.0003875 0
0.00113775 0.00038875 0
0.00110211 0.000480875 0
0.00108244 0.000471951 0
0.00109312 0.000458413 0
0.00111755 0.000399116 0
0.0010944 0.000392972 0
0.00110415 0.000405876 0
0.00108839 0.000407536 0
0.00106472 0.000476905 0
0.00107274 0.000457868 0
0.00108011 0.000392415 0
0.00106885 0.000404365 0
0.00106625 0.000388708 0
0.00105286 0.000419254 0
0.00105055 0.000395469 0
0.00104215 0.000439764 0
0.00106346 0.000440629 0
0.00100945 0.000451249 0
0.00102825 0.00045614 0
0.00101189 0.000468452 0
0.00107625 0.00038125 0
0.00105575 0.00037875 0
0.001066 0.00038 0
0.00103352 0.000476905 0
0.00101803 0.00048465 0
0.00103685 0.000389398 0
0.0010245 0.00038825 0
0.00103525 0.00037625 0
0.00101092 0.000399779 0
0.00101267 0.000382619 0
0.00101382 0.00042025 0
0.00103187 0.000405286 0
0.00103359 0.000424605 0
0.000987383 0.00045447 0
0.000999411 0.000435161 0
0.0009744 0.000433145 0
0.0010045 0.0003725 0
0.00101475 0.00037375 0
0.000970845 0.000465215 0
0.000952614 0.000467664 0
0.000961768 0.000449944 0
0.00099729 0.000387704 0
0.000978901 0.00039598 0
0.000985823 0.000381492 0
0.000962289 0.000393709 0
0.000974259 0.000381279 0
0.00097375 0.00036875 0
0.000963045 0.000376631 0
0.000958 0.0005 0
0.000932 0.0005 0
0.000947542 0.00048457 0
0.000949675 0.000385245 0
0.000936214 0.000389472 0
0.000940006 0.000374906 0
0.000966411 0.000412573 0
0.000944241 0.000407079 0
0.000903569 0.000424993 0
0.000921701 0.000402409 0
0.000927439 0.000427744 0
0.000889795 0.000409067 0
0.000903071 0.00040248 0
0.000925447 0.000377721 0
0.00093275 0.00036375 0
0.000907708 0.000387127 0
0.000911303 0.000370839 0
0.000911933 0.000455145 0
0.000930678 0.000473279 0
0.000911886 0.000482603 0
0.000887724 0.000388076 0
0.000899595 0.000375116 0
0.000902 0.00036 0
0.000889241 0.00036954 0
0.000836977 0.000459472 0
0.000836223 0.000483578 0
0.000820467 0.000474142 0
0.000871227 0.000403557 0
0.000861 0.000355 0
0.000868368 0.000365714 0
0.00085484 0.00036588 0
0.000847735 0.000402845 0
0.000823121 0.000421599 0
0.000826582 0.000398147 0
0.000846943 0.00042454 0
0.000838832 0.000378613 0
0.000835569 0.000363808 0
0.000844098 0.00036291 0
0.00085075 0.00035375 0
0.000851465 0.000477164 0
0.00083025 0.00035125 0
0.000822824 0.000368659 0
0.00081446 0.000357362 0
0.000805884 0.000371794 0
0.000753471 0.000477524 0
0.000738313 0.000473927 0
0.000739102 0.000461526 0
0.00079826 0.000358588 0
0.000788607 0.000376287 0
0.000781733 0.000357987 0
0.000816783 0.000384471 0
0.000807975 0.000404095 0
0.000752138 0.000404775 0
0.000767682 0.000417043 0
0.000749617 0.000421803 0
0.000752903 0.000384008 0
0.000738293 0.000393136 0
0.000772614 0.000394048 0
0.00076863 0.000371878 0
0.000765995 0.000354121 0
0.000779 0.000345 0
0.00071811 0.000453059 0
0.000738069 0.000437967 0
0.000752085 0.000365972 0
0.000728123 0.000374583 0
0.000741845 0.000354664 0
[...]
CELL_DATA 58684
VECTORS velocity DOUBLE
63.8322 0.277094 0
68.1904 -2.05412e-05 0
68.1685 3.31562e-05 0
68.192 -0.000115836 0
68.1691 1.10013e-05 0
68.1909 4.09287e-05 0
68.1677 -0.000150459 0
67.6544 -0.0238155 0
67.5931 -0.0209335 0
67.4001 -0.0202581 0
67.2949 -0.02869 0
67.2051 -0.518073 0
67.4715 -0.122991 0
67.2334 -0.161051 0
67.4771 -0.205045 0
67.2203 -0.226783 0
67.6184 -0.169784 0
67.1438 -0.14343 0
67.319 -0.331807 0
67.21 -0.119244 0
67.6229 -0.158766 0
67.1779 -0.350242 0
72.2098 -1.49444 0
67.7369 0.0213977 0
67.6699 0.0989508 0
67.7406 0.0546208 0
67.5327 0.172791 0
67.5924 0.0217493 0
67.5472 0.224674 0
67.4136 0.0575287 0
67.6061 0.199781 0
67.462 0.0188644 0
67.5301 0.237843 0
67.263 0.21751 0
66.8728 1.3342 0
67.2715 0.0622761 0
67.6283 0.200235 0
67.2067 0.429025 0
68.1895 -0.000718206 0
68.1878 -0.000292755 0
68.1823 0.00215322 0
68.181 0.00191179 0
68.1739 -0.000279834 0
68.162 0.0049931 0
68.1596 0.00694087 0
68.157 0.00337553 0
68.1489 3.89802e-05 0
68.1385 0.010846 0
68.1381 0.00805847 0
68.1314 0.00170315 0
68.1197 0.0130372 0
68.1219 0.0124663 0
68.1222 0.00844397 0
68.1221 0.00411519 0
68.1221 0.0136263 0
68.1258 0.0127156 0
68.1336 0.00795933 0
68.1333 0.0204332 0
68.1418 0.0212596 0
68.1511 0.0179343 0
68.1631 0.00856975 0
68.1568 0.0314855 0
68.1877 0.0344425 0
68.2021 0.0117019 0
68.2033 0.047588 0
68.2165 0.0571883 0
68.2365 0.048541 0
68.2558 0.0149729 0
68.2656 0.0646625 0
68.2911 0.0534171 0
68.3294 0.0168387 0
68.3257 0.0715546 0
68.3501 0.0666601 0
68.3719 0.0695417 0
68.4365 0.0198587 0
68.4491 0.0602086 0
68.4647 0.0339128 0
68.5477 0.026088 0
68.5456 0.0815909 0
68.6583 0.0715567 0
68.5762 0.0734518 0
68.6778 0.0245813 0
68.7273 0.0267991 0
68.7013 0.0838869 0
68.8376 0.0369236 0
68.8138 0.0689237 0
68.7717 0.0927633 0
68.8185 0.0978384 0
68.9629 0.0622854 0
68.9924 0.074689 0
68.9124 0.0854899 0
68.9652 0.0850187 0
69.0761 0.0479862 0
69.0414 0.0477727 0
69.0635 0.0739405 0
69.1949 0.0488993 0
69.1786 0.0200425 0
69.1554 0.0535446 0
69.236 0.0311417 0
69.3054 0.00137335 0
69.4016 -0.0197164 0
69.2852 0.0251294 0
69.459 -0.0177105 0
69.381 -0.00701098 0
69.4582 -0.0204963 0
69.4258 -0.0215903 0
69.554 -0.0233727 0
69.4658 -0.0316742 0
69.508 -0.0534307 0
69.6404 -0.072894 0
69.6242 -0.0611977 0
69.5617 -0.0768558 0
69.625 -0.117204 0
69.6965 -0.0748489 0
69.7293 -0.125338 0
69.7319 -0.0905448 0
69.8447 -0.00348664 0
69.7039 -0.144659 0
69.7511 -0.195681 0
69.8412 -0.182093 0
69.9091 -0.174485 0
69.8526 -0.131647 0
69.8401 -0.221433 0
69.963 -0.175866 0
69.9142 -0.269445 0
69.9457 -0.112639 0
69.9314 -0.235605 0
70.0191 -0.101255 0
69.976 -0.279508 0
70.0127 -0.330155 0
70.1149 -0.199022 0
70.0614 -0.288566 0
70.0576 -0.145329 0
70.1185 -0.348313 0
70.0721 -0.110556 0
70.0709 -0.355217 0
70.1691 -0.376805 0
70.207 -0.265183 0
70.2186 -0.324245 0
70.1831 -0.323873 0
70.1805 -0.339475 0
70.1322 -0.155809 0
70.232 -0.376643 0
70.2595 -0.391391 0
70.2769 -0.252905 0
70.1883 -0.218386 0
70.2227 -0.341045 0
70.2565 -0.386962 0
70.1943 -0.0797016 0
70.3198 -0.380758 0
70.3325 -0.404134 0
70.3079 -0.229979 0
70.2732 -0.23115 0
70.314 -0.346038 0
70.3362 -0.378101 0
70.2317 -0.0695405 0
70.3499 -0.418405 0
70.3736 -0.411821 0
70.3393 -0.277414 0
70.3593 -0.329103 0
70.353 -0.265049 0
70.3773 -0.395079 0
70.2991 -0.106169 0
70.3738 -0.368768 0
70.3942 -0.330275 0
70.3198 -0.103903 0
70.4117 -0.340566 0
70.4084 -0.29705 0
70.3949 -0.192225 0
70.3723 -0.127847 0
70.4392 -0.34604 0
70.4617 -0.354595 0
70.3549 -0.0646544 0
70.4813 -0.296554 0
70.4907 -0.28921 0
70.4263 -0.228311 0
70.4423 -0.140601 0
70.4586 -0.156694 0
70.5479 -0.300969 0
70.48 -0.0938239 0
70.5759 -0.263176 0
70.5948 -0.216054 0
70.6257 -0.236005 0
70.5035 -0.00317261 0
70.7037 -0.206073 0
70.5835 -0.18222 0
70.6873 -0.121329 0
70.7589 -0.120073 0
70.7642 -0.192689 0
70.8156 -0.187902 0
70.6149 -0.0476098 0
70.859 -0.160405 0
70.8902 -0.165023 0
70.8897 -0.167906 0
71.0394 -0.0269633 0
70.8753 -0.131569 0
71.0758 -0.165685 0
71.1551 -0.141912 0
71.067 -0.109802 0
71.1394 -0.185292 0
71.1223 -0.171611 0
70.9985 -0.0239372 0
71.2505 -0.221047 0
71.2864 -0.21194 0
71.7161 -0.0360779 0
71.4127 -0.290156 0
71.248 -0.144344 0
71.6445 -0.196572 0
71.7003 -0.318269 0
71.5131 -0.278438 0
71.4884 -0.34636 0
71.786 -0.163392 0
71.6868 -0.419173 0
71.6428 -0.481132 0
71.8571 -0.599767 0
72.1823 0.00349141 0
71.9166 -0.501762 0
71.8758 -0.676449 0
71.9931 -0.158001 0
71.9359 -0.750807 0
72.2915 -0.453006 0
72.0085 -0.806507 0
72.6333 -0.323923 0
72.1977 -0.824352 0
72.1495 -0.962167 0
72.5582 -0.17156 0
72.3153 -1.06725 0
72.5501 -1.20494 0
72.556 -0.953664 0
72.7555 -0.632558 0
72.5578 -1.42736 0
72.9999 -0.633588 0
73.3793 -0.113541 0
72.555 -1.12506 0
72.6882 -1.48971 0
72.8461 -1.6257 0
73.3314 -0.614437 0
73.0757 -1.52637 0
73.2493 -1.73594 0
73.5511 -0.209163 0
73.4756 -1.81022 0
73.2858 -1.93353 0
73.3566 -1.45908 0
73.6606 -0.776148 0
73.7457 -0.94953 0
73.5043 -2.06851 0
74.01 -0.0197819 0
73.6574 -2.22769 0
73.8533 -2.17292 0
73.779 -2.27114 0
74.2667 -0.649307 0
74.1221 -1.97459 0
74.3902 -2.07524 0
74.3536 -0.0181316 0
74.4925 -2.40927 0
74.8916 -2.19554 0
74.4912 -1.56651 0
74.4506 -0.770076 0
74.7712 -2.39239 0
74.6414 -0.937269 0
74.7249 -0.101695 0
74.8318 -1.7919 0
75.1673 -2.28555 0
75.4618 -2.19903 0
74.8972 -0.389031 0
75.6382 -1.72646 0
75.6058 -2.08047 0
74.9652 -0.126415 0
75.8184 -2.13178 0
76.1539 -1.95613 0
75.9474 -1.08033 0
75.1237 0.0101152 0
76.4565 -1.67311 0
75.842 -0.315581 0
76.2084 -0.243053 0
76.4175 -1.41708 0
76.2194 -0.943472 0
77.0598 -1.14923 0
75.4746 0.137439 0
76.9657 -1.34534 0
76.7926 -0.445417 0
77.3713 -0.565854 0
75.2663 0.0465428 0
77.5492 0.264814 0
77.3902 0.543076 0
75.1197 0.143166 0
77.7339 -0.225454 0
77.8706 0.397425 0
76.0071 1.00858 0
75.5352 0.493697 0
76.813 0.502306 0
77.8579 0.944969 0
75.3222 0.257531 0
77.5365 1.70052 0
77.8371 0.98764 0
77.8322 1.21025 0
74.9652 1.05465 0
76.6819 1.9405 0
77.5528 1.98776 0
74.9816 0.193732 0
77.3694 2.39481 0
77.3211 2.3989 0
76.4395 3.53786 0
73.2801 0.261177 0
77.2098 3.24096 0
75.8488 2.44064 0
74.6236 1.13217 0
74.2662 2.08216 0
77.0017 3.56069 0
76.2609 4.00026 0
73.7578 0.415219 0
76.0598 4.5251 0
68.1661 0.000403437 0
68.1633 0.000361027 0
68.1559 -0.00273265 0
68.1546 -0.0018399 0
68.1468 0.000390498 0
68.1325 -0.00574679 0
68.1299 -0.0074338 0
68.1261 -0.00346819 0
68.1167 0.000139618 0
68.1052 -0.0109666 0
68.1046 -0.00752592 0
68.0972 -0.00138719 0
68.084 -0.0133055 0
68.0859 -0.012658 0
68.0858 -0.00855465 0
68.0843 -0.00372456 0
68.0822 -0.0154784 0
68.0851 -0.0140147 0
68.0912 -0.007608 0
68.089 -0.0211277 0
68.0968 -0.0219622 0
68.0993 -0.0317531 0
68.1052 -0.0182441 0
68.1143 -0.0273841 0
68.1412 -0.0447844 0
68.1375 -0.0359575 0
68.1612 -0.0577424 0
68.1805 -0.0496723 0
68.1926 -0.0599455 0
68.1686 -0.0277365 0
68.2326 -0.0550181 0
68.2434 -0.0693104 0
68.2265 -0.0270561 0
68.3067 -0.0732304 0
68.3283 -0.0782445 0
68.3499 -0.0605954 0
68.3006 -0.0372002 0
68.3814 -0.0638242 0
68.4482 -0.0679901 0
68.3953 -0.0360962 0
68.5251 -0.0926735 0
68.5528 -0.0479762 0
68.5811 -0.0748977 0
68.5092 -0.0430399 0
68.623 -0.0885948 0
68.6885 -0.0977669 0
68.753 -0.0394828 0
68.692 -0.0738128 0
68.7637 -0.0892585 0
68.7918 -0.0975783 0
68.9101 -0.054183 0
68.8716 -0.0652391 0
68.8998 -0.0788233 0
68.9475 -0.0892547 0
69.0273 -0.0433381 0
68.9997 -0.0775634 0
69.0346 -0.0689358 0
69.1629 -0.00564583 0
69.0754 -0.0294331 0
69.1266 -0.0444265 0
69.1442 -0.0386576 0
69.2268 -0.0096979 0
69.2711 -0.00833962 0
69.2852 0.00541296 0
69.1205 -0.00230689 0
69.3098 0.00603841 0
69.3877 0.0361574 0
69.3645 0.0266209 0
69.3497 0.0113166 0
69.4267 0.0612168 0
69.4459 0.0525465 0
69.5671 0.0671643 0
69.4399 0.0628588 0
69.5122 0.100152 0
69.5493 0.127226 0
69.5069 0.0242808 0
69.5642 0.103954 0
69.6179 0.174441 0
69.6019 0.084817 0
69.6374 0.152964 0
69.6987 0.222255 0
69.6921 0.174372 0
69.7741 0.0724655 0
69.7286 0.220597 0
69.7508 0.233881 0
69.8132 0.0692453 0
69.7907 0.274454 0
69.7592 0.219319 0
69.8234 0.238132 0
69.7997 0.166811 0
69.8536 0.314294 0
69.9317 0.371284 0
69.913 0.107555 0
69.8935 0.268597 0
69.9822 0.387854 0
69.9496 0.309198 0
69.9018 0.140492 0
69.9941 0.374934 0
70.0078 0.38794 0
69.9813 0.099089 0
70.0059 0.174428 0
70.025 0.342846 0
70.0701 0.432006 0
70.0009 0.251931 0
70.0905 0.395828 0
70.1095 0.426869 0
70.113 0.141265 0
70.0818 0.262561 0
70.142 0.448764 0
70.1369 0.387215 0
70.0432 0.125372 0
70.1478 0.423699 0
70.1612 0.428278 0
70.1572 0.167524 0
70.1692 0.381715 0
70.2273 0.473123 0
70.2009 0.370367 0
70.1024 0.130292 0
70.2314 0.436459 0
70.2581 0.477461 0
70.1842 0.152799 0
70.2189 0.384382 0
70.2401 0.187869 0
70.2362 0.380659 0
70.2326 0.238274 0
70.2995 0.474291 0
70.3292 0.433073 0
70.2337 0.128007 0
70.2932 0.426182 0
70.3786 0.445076 0
70.291 0.113842 0
70.2636 0.371793 0
70.3218 0.375331 0
70.4184 0.417149 0
70.2922 0.072883 0
70.4036 0.371292 0
70.5423 0.422608 0
70.4753 0.350156 0
70.3968 0.120048 0
70.5571 0.3386 0
70.3584 0.155428 0
70.3907 0.358368 0
70.5687 0.383675 0
70.721 0.381684 0
70.7332 0.362009 0
70.3676 0.0106757 0
70.8729 0.368125 0
70.8963 0.344222 0
70.8988 0.287869 0
70.8163 0.130798 0
70.9721 0.11504 0
70.9335 0.320036 0
70.5927 0.117529 0
71.1453 0.302137 0
71.0957 0.312237 0
71.1063 0.259591 0
70.9328 0.0752268 0
71.2457 0.260337 0
71.4383 0.338963 0
71.212 0.104033 0
71.131 0.109881 0
71.3615 0.263241 0
71.6144 0.337453 0
70.9847 0.0729703 0
71.6642 0.368633 0
71.7179 0.345059 0
71.4977 0.0429273 0
71.901 0.442429 0
71.9341 0.419875 0
72.032 0.381265 0
71.822 0.124402 0
71.7591 0.12771 0
71.9134 0.41316 0
71.6087 0.0622227 0
72.0984 0.556169 0
72.1447 0.532129 0
72.1878 0.524906 0
71.9892 0.0560943 0
72.3156 0.662909 0
72.326 0.711137 0
72.2806 0.340356 0
72.5309 0.589624 0
72.3815 0.288635 0
72.3891 0.711386 0
72.2618 0.145039 0
72.542 0.925308 0
72.5466 0.919227 0
72.3594 0.156491 0
72.658 0.918802 0
72.7868 1.13194 0
72.7281 1.07551 0
72.9688 0.259151 0
73.0147 1.2946 0
73.0536 1.40477 0
72.6816 0.709415 0
73.0808 1.11881 0
72.9074 0.46341 0
73.2346 1.58376 0
73.1855 0.180424 0
73.2713 1.62489 0
73.315 1.62012 0
73.0071 0.136586 0
73.2745 1.49902 0
73.5845 1.87257 0
73.698 1.93154 0
73.5696 0.52674 0
73.779 1.97448 0
73.8681 2.13547 0
73.3008 1.14688 0
74.108 1.56474 0
73.7683 0.556786 0
74.0827 2.22152 0
73.8681 0.218456 0
74.2787 2.21514 0
74.4276 2.23414 0
73.6728 0.136591 0
74.3743 1.95824 0
74.8706 2.32868 0
75.1878 2.28154 0
74.1421 0.489028 0
74.9814 2.18323 0
75.4466 2.37631 0
74.5666 1.72073 0
75.575 1.52535 0
74.3484 0.398199 0
75.1998 2.13164 0
74.5284 0.166145 0
75.9508 2.33744 0
76.1011 2.09164 0
74.3263 0.12917 0
75.931 1.54812 0
76.4435 1.76854 0
76.836 1.62289 0
75.0572 0.0954549 0
77.0494 1.41583 0
77.1766 1.18959 0
75.4716 0.0562572 0
77.2533 1.27076 0
76.6862 0.256691 0
75.2941 0.442046 0
74.974 0.363364 0
77.5105 0.953038 0
77.4288 0.253045 0
77.8959 0.238582 0
74.9828 -0.00422442 0
77.4396 -0.325871 0
77.9908 -0.528806 0
75.2776 -0.0403314 0
77.1775 -0.373136 0
78.0423 -1.08326 0
76.9823 -0.982997 0
75.6469 -0.363225 0
77.9419 -1.42043 0
77.8773 -1.74273 0
76.5575 -0.425887 0
76.6441 -2.11607 0
75.2876 -1.86159 0
77.7165 -1.89092 0
75.2785 -0.297991 0
77.6057 -2.59497 0
75.4218 4.9325 0
75.9462 4.42323 0
72.0011 1.24861 0
75.3526 4.86838 0
73.7665 4.56016 0
74.7063 5.35202 0
72.6513 0.492228 0
74.0261 5.48179 0
73.2099 5.41613 0
71.3239 0.649109 0
73.1669 5.74643 0
77.5244 -2.9395 0
75.3462 -0.179681 0
77.3385 -3.19923 0
76.5031 -3.59698 0
76.039 -3.12588 0
75.0832 -0.218646 0
76.556 -4.02934 0
72.3441 5.28691 0
75.8573 -4.89659 0
74.983 -1.01829 0
75.6633 -4.71588 0
74.8152 -5.42298 0
70.2012 1.5849 0
74.5419 -5.291 0
75.8602 -2.92807 0
75.1207 -4.79967 0
73.7365 -3.50279 0
73.2961 -0.589789 0
74.4074 -4.85928 0
73.7622 -5.097 0
71.8298 5.54712 0
73.8066 -5.18962 0
74.089 -0.315975 0
73.0087 -5.37489 0
72.463 -5.84813 0
72.6628 -0.369596 0
71.6439 -5.92888 0
72.1446 -4.35271 0
70.4036 -0.411086 0
70.9432 -6.00474 0
70.853 -3.36855 0
72.3756 -2.62529 0
71.4074 -5.18026 0
70.4921 -5.45931 0
72.6576 2.91881 0
69.2795 0.345851 0
72.192 1.96689 0
70.9848 -0.00638802 0
70.1431 -5.84413 0
71.6259 5.23723 0
69.0743 0.262132 0
71.044 4.4847 0
69.5063 -5.82193 0
70.5331 -1.19263 0
68.8022 -4.34709 0
71.0744 5.94778 0
68.1913 1.5996 0
71.047 5.86486 0
69.3048 5.09194 0
68.301 0.318097 0
69.9623 5.23878 0
69.216 -4.42934 0
70.0134 -0.374825 0
68.8662 -5.96769 0
68.9028 -5.78812 0
70.1884 5.62363 0
68.7359 5.50481 0
67.8045 0.0284736 0
69.5311 5.61765 0
67.8209 3.77878 0
67.9213 1.84306 0
68.1651 -5.93268 0
68.102 -0.867264 0
68.4207 -5.83919 0
67.8661 5.76269 0
67.6993 -5.53057 0
67.479 -0.893241 0
67.4943 -2.73503 0
66.9127 -5.35421 0
68.6362 -3.03553 0
66.7588 -5.1765 0
67.2305 -0.2599 0
66.1023 -5.00886 0
67.1616 2.33671 0
67.358 0.379785 0
67.5376 4.97147 0
67.2259 0.11046 0
67.3831 5.69909 0
67.2314 5.44548 0
67.1559 0.176112 0
66.6441 4.86572 0
67.2318 0.142261 0
66.9566 -4.73841 0
67.2321 -0.477673 0
67.8083 4.33884 0
67.0571 0.924512 0
66.4356 4.62833 0
66.0271 -5.015 0
67.3311 -0.197635 0
64.8605 -4.27294 0
67.298 -0.532559 0
65.3321 -4.32064 0
66.7625 2.10578 0
67.7199 0.139667 0
67.3653 -3.97865 0
67.7143 -0.167025 0
64.9294 -4.0644 0
65.9402 4.23932 0
65.859 -3.28519 0
67.5318 -0.250562 0
65.1041 -3.53872 0
66.4094 2.48704 0
64.9282 1.54423 0
65.5578 3.72053 0
66.5715 -1.13356 0
65.0697 -3.8544 0
67.2617 0.530347 0
65.5689 4.7979 0
66.2016 -1.95266 0
67.7327 -0.086918 0
64.7942 -3.5305 0
65.4437 4.39664 0
67.0513 0.926103 0
65.2565 3.54711 0
65.1182 3.46393 0
67.2757 0.518579 0
64.5577 3.09393 0
64.2202 -3.108 0
67.3955 -0.324837 0
63.9741 -3.11662 0
65.4808 -1.52722 0
67.5562 -0.16488 0
63.6632 -2.14336 0
64.5738 3.80705 0
66.9028 0.81693 0
65.3395 2.53477 0
64.016 -1.92157 0
67.1297 -0.416712 0
63.5308 -1.78092 0
63.7523 2.80013 0
67.1477 0.346994 0
63.9865 2.68213 0
64.1717 2.20665 0
67.72 0.0194324 0
63.6575 2.3214 0
64.3266 -1.143 0
66.8596 -0.666504 0
63.83 -1.01686 0
63.062 -0.634378 0
65.8749 -0.787979 0
63.2293 -0.541364 0
65.6247 0.820193 0
67.3723 0.13407 0
65.0711 1.89052 0
63.5891 1.84409 0
66.9406 0.100728 0
63.1643 1.19705 0
66.3239 -0.240692 0
67.6106 -0.0957655 0
63.1233 -0.161019 0
63.4282 -0.0297483 0
67.4403 -0.0608278 0
64.9398 0.237704 0
63.7012 0.418179 0
67.5306 -0.0460224 0
66.0017 -4.27877 0
67.2771 -0.504742 0
67.6019 0.178407 0
66.7946 4.99504 0
67.3187 -5.51998 0
68.9406 -0.714404 0
67.6815 0.808731 0
69.3427 5.88741 0
67.3212 0.378107 0
64.2289 3.64045 0
63.7305 -2.15565 0
67.4817 -0.255254 0
67.0985 -0.704331 0
66.1086 -2.86214 0
66.9782 1.04905 0
67.6384 0.185898 0
67.3895 0.0223316 0
63.5155 1.59273 0
67.16 0.387887 0
66.7958 1.44911 0
66.9736 -1.22972 0
67.4974 -0.590358 0
72.666 -0.823971 0
72.0443 -5.79435 0
73.4547 5.43776 0
72.3063 0.283785 0
66.3455 1.5487 0
67.8491 5.56166 0
66.9635 -5.13971 0
67.0805 -1.95475 0
65.662 -1.23684 0
64.2088 -0.157485 0
65.4964 4.32146 0
66.5471 1.66097 0
66.4591 -1.61681 0
64.286 -3.50704 0
77.0964 -3.65064 0
74.903 -0.498645 0
74.5969 0.544361 0
77.2707 2.9154 0
66.9639 -1.05586 0
67.6483 -0.069726 0
67.5578 0.206613 0
67.147 0.671131 0
69.9417 0.441248 0
69.8207 2.776 0
68.2871 -1.53313 0
71.1729 -1.17009 0
69.0376 3.46311 0
71.4104 5.58407 0
70.5959 -5.96102 0
69.4494 -1.32131 0
73.3944 1.1314 0
74.0378 3.48102 0
73.0106 -1.94627 0
74.1492 -0.0147632 0
75.3923 -0.0881832 0
77.9492 -0.0451669 0
77.4437 -0.617634 0
75.2843 0.0469806 0
74.547 0.0118432 0
76.1658 2.14726 0
76.1203 -1.7939 0
75.0497 -0.131354 0
67.0986 -1.23844 0
67.1092 -0.609323 0
66.8918 1.27435 0
67.1679 0.800479 0
66.8528 1.33718 0
67.5323 0.25879 0
67.7112 -0.186464 0
66.8692 -1.30522 0
75.4098 0.727249 0
76.264 1.30315 0
75.6014 -0.807033 0
75.3276 -0.118853 0
64.9703 -0.771134 0
67.4618 -0.176848 0
66.3995 -0.532298 0
67.3124 -0.422412 0
67.5355 0.226469 0
66.7426 1.22471 0
74.5318 2.24432 0
74.0104 0.362074 0
74.5048 -0.0182487 0
74.44 -2.28515 0
68.6141 -0.00781552 0
68.185 -2.23226 0
68.9261 1.27448 0
67.7936 0.356125 0
66.3308 3.1646 0
66.1504 5.23564 0
65.9823 -4.63788 0
66.5849 -2.58247 0
66.8721 -1.75261 0
66.0537 -1.84971 0
66.4145 3.57799 0
66.5548 1.83877 0
75.1429 -0.185506 0
75.1988 0.01249 0
74.9887 0.0558715 0
75.81 1.11271 0
67.694 -4.00058 0
68.4197 -3.79926 0
68.0827 3.41506 0
68.7796 5.89452 0
67.0845 -3.17076 0
67.6929 -1.90205 0
67.6006 2.43916 0
67.1448 1.28699 0
73.5434 1.88849 0
73.4021 0.254461 0
73.8206 -0.0286106 0
73.1003 -1.8322 0
66.0657 0.924368 0
67.6011 0.05088 0
74.5613 -0.256596 0
75.2908 -1.18007 0
74.8291 0.842038 0
74.149 0.131007 0
67.0949 -0.876073 0
66.8582 -1.34743 0
67.1285 1.46508 0
67.0813 0.939692 0
67.6061 -0.195175 0
67.1506 -0.881463 0
67.3222 0.33326 0
67.5869 0.197064 0
63.772 1.33299 0
65.722 1.24038 0
73.643 -2.16628 0
76.0287 -4.49105 0
76.5265 3.90444 0
73.4441 1.51243 0
65.6242 -1.80213 0
64.1914 -2.2111 0
72.6898 0.158758 0
72.6251 0.97915 0
71.6532 0.0292958 0
72.2824 0.694356 0
72.4613 -1.12756 0
72.7297 -0.173752 0
71.723 -0.518889 0
71.9501 0.00372387 0
73.9678 -0.520181 0
73.9133 -1.34198 0
73.7275 0.792745 0
73.6044 0.018372 0
67.5374 0.210083 0
66.7504 0.668038 0
65.3283 0.3884 0
63.9518 0.660532 0
67.1697 -0.279982 0
67.5277 -0.168211 0
66.2426 0.307528 0
66.1063 -0.692639 0
77.9145 -1.42452 0
75.654 -1.25313 0
76.3514 1.51926 0
77.8014 0.466306 0
67.3642 -0.0750978 0
67.1999 -0.486336 0
67.6224 0.0571679 0
67.2629 0.328128 0
73.2144 -0.351301 0
73.0194 -0.850886 0
73.2235 0.540638 0
72.8531 0.121533 0
71.2988 0.0544345 0
71.5593 0.288831 0
71.3071 -0.252466 0
71.2494 -0.0461999 0
67.0609 -0.99503 0
67.2214 -1.8006 0
66.9326 1.39394 0
66.917 1.24671 0
67.0916 2.35599 0
66.1494 1.60099 0
66.5599 -1.6971 0
66.8281 -2.29386 0
75.8193 -0.000567601 0
76.324 1.70744 0
76.5631 -1.46023 0
76.2944 0.0227223 0
66.4335 -1.19435 0
66.4296 -1.42878 0
66.6259 1.25717 0
66.0197 1.18164 0
71.3128 0.333909 0
70.8355 0.132564 0
70.7759 -0.0399595 0
70.9988 -0.173458 0
71.8933 2.82216 0
73.5216 4.80087 0
72.911 -5.79934 0
72.8372 -2.24816 0
64.5852 -2.62796 0
66.0532 -2.78195 0
71.6061 -2.07449 0
72.3 -0.773831 0
70.6512 0.351148 0
73.6051 2.14771 0
64.4142 3.48705 0
65.5408 2.14004 0
72.3403 -0.0496981 0
72.2895 -0.611355 0
72.5027 0.330629 0
72.449 0.0898497 0
75.0981 -0.268843 0
75.0462 -1.10538 0
75.3548 1.49087 0
74.7363 0.216999 0
70.0342 0.980965 0
68.3584 0.270302 0
69.3464 -0.259034 0
70.0688 -2.10903 0
74.6734 1.02731 0
74.6595 2.08204 0
75.1901 -2.20004 0
75.4705 -0.708256 0
69.2842 -2.69357 0
70.1358 -1.21118 0
69.4577 1.86886 0
71.8441 4.02395 0
70.6749 0.319219 0
70.507 0.0725768 0
70.6433 -0.0529478 0
70.6226 -0.23344 0
71.4306 -0.0870801 0
71.749 0.00941104 0
71.8972 0.0566679 0
71.5545 0.211986 0
67.3659 0.41035 0
67.3033 1.08863 0
67.4265 -0.987249 0
67.8802 -0.281574 0
68.612 2.10784 0
67.4461 1.62351 0
67.0458 -2.37397 0
66.627 -2.31656 0
75.4803 -0.246505 0
75.3584 -0.144564 0
75.4163 0.245365 0
75.8513 0.26681 0
67.5551 2.96696 0
67.7454 2.05992 0
67.1184 -0.700023 0
67.131 -0.246661 0
67.1888 0.232554 0
67.2566 0.747608 0
65.4209 -0.69912 0
66.212 -1.31181 0
77.5562 -2.3699 0
75.7898 -1.4583 0
75.2899 2.61785 0
77.5356 2.30581 0
66.8941 -1.12207 0
67.6548 -0.118438 0
67.4718 0.261107 0
66.9779 1.05306 0
67.2671 0.11608 0
67.1325 0.757458 0
67.2143 -0.436242 0
67.2216 -0.0423661 0
64.7524 -0.199735 0
63.1096 0.137763 0
71.9355 2.19154 0
75.3467 2.14057 0
74.456 -1.80652 0
74.6742 -3.52521 0
66.1617 1.71493 0
65.8559 1.00666 0
67.743 0.00287014 0
66.8518 -0.024079 0
68.3883 4.82113 0
66.6308 3.18923 0
67.7737 -3.31356 0
67.37 -5.71495 0
66.2055 0.860694 0
67.1097 0.602667 0
73.7047 1.03945 0
73.7311 2.03527 0
73.5969 -2.01161 0
73.9569 -0.4579 0
70.8071 -0.0440389 0
71.1354 -0.0241733 0
71.2815 0.0339548 0
71.0817 0.279479 0
77.3838 -0.575251 0
76.7668 0.782057 0
76.3565 0.212975 0
77.6485 0.605657 0
66.4646 0.148337 0
65.6297 -1.39522 0
66.7113 1.48066 0
66.7238 1.64697 0
66.7644 -1.81969 0
66.9446 -1.20631 0
67.5396 0.0477143 0