# vtk DataFile Version 3.0
Unstructured Grid for Triangles
ASCII
DATASET UNSTRUCTURED_GRID
POINTS 29612 DOUBLE
-0.000272397 1.23686e-05 0
-0.000295789 9.5838e-06 0
-0.000277865 -3.1235e-06 0
0.002024 0.0005 0
0.00203975 0.00049875 0
0.00205 0.0005 0
0.00203975 -0.00049875 0
0.002024 -0.0005 0
0.00205 -0.0005 0
0.0020295 0.0004975 0
0.0020295 -0.0004975 0
0.00201925 0.00049625 0
0.00201925 -0.00049625 0
-0.000529747 -0.000479887 0
-0.00055 -0.0005 0
-0.000524 -0.0005 0
-0.000505983 -0.000484325 0
-0.000498 -0.0005 0
-0.000472 -0.0005 0
-0.000483864 -0.000487761 0
-0.000446 -0.0005 0
-0.000459 -0.000484239 0
-0.000429453 -0.000424878 0
-0.000447486 -0.000420717 0
-0.000441829 -0.000436609 0
-0.000512578 -0.000462101 0
-0.000493078 -0.000453594 0
-0.00050706 -0.000439006 0
-0.000419243 -0.000477545 0
-0.000440307 -0.000471837 0
-0.00043691 -0.000486724 0
-0.000516129 -0.000420948 0
-0.000495355 -0.000415432 0
-0.000511646 -0.00040128 0
-0.000394697 -0.000481197 0
-0.000406302 -0.000455143 0
-0.000537257 -0.000388197 0
-0.000531099 -0.000407297 0
-0.000523982 -0.000388328 0
-0.000370063 -0.000472956 0
-0.000368 -0.0005 0
-0.00035308 -0.000485302 0
-0.0005072 -0.00037867 0
-0.000485506 -0.000383975 0
-0.000490949 -0.000359622 0
-0.000337127 -0.000484331 0
-0.000316 -0.0005 0
-0.000326495 -0.00047415 0
-0.00055 -0.00035 0
-0.000531201 -0.000370361 0
-0.000528367 -0.000346817 0
-0.000363898 -0.000448809 0
-0.000383315 -0.000460336 0
-3.26269e-05 -0.000415503 0
-5.99662e-05 -0.000409556 0
-5.46944e-05 -0.000429488 0
-0.000529747 0.000479887 0
-0.00055 0.0005 0
-0.00055 0.000475 0
-0.00055 0.00045 0
-0.000534834 0.000429171 0
-0.000526943 0.000442611 0
-0.000534026 0.000460176 0
-0.000531099 0.000407297 0
-0.000511672 0.000401178 0
-0.000516129 0.000420948 0
-0.000524 0.0005 0
-0.000505983 0.000484325 0
-0.000531201 0.000370361 0
-0.0005072 0.00037867 0
-0.000523982 0.000388328 0
-0.00048341 0.000469132 0
-0.000483679 0.000487539 0
-0.000528367 0.000346817 0
-0.00055 0.000325 0
-0.000525657 0.000328474 0
-0.000498 0.0005 0
-0.000530382 0.0003125 0
-0.000419243 0.000477545 0
-0.000440015 0.00047335 0
-0.000425917 0.000463678 0
-0.000435138 0.000262661 0
-0.000414982 0.000274462 0
-0.000435654 0.000285217 0
-0.000459 0.000484239 0
-0.000436852 0.000487027 0
-0.000446 0.0005 0
-0.000533308 0.000292503 0
-0.00055 0.000275 0
-0.000523377 0.000276953 0
-0.000425282 0.000446352 0
-0.000409368 0.000435728 0
-0.000406302 0.000455143 0
0.002009 0.000495 0
0.001998 0.0005 0
0.00199875 0.00049375 0
0.0019885 0.0004925 0
0.001972 0.0005 0
0.00197825 0.00049125 0
0.001968 0.00049 0
0.00195775 0.00048875 0
0.001946 0.0005 0
0.0019475 0.0004875 0
0.00193725 0.00048625 0
0.00192 0.0005 0
0.001927 0.000485 0
0.00191675 0.00048375 0
0.0019065 0.0004825 0
0.001894 0.0005 0
0.00189625 0.00048125 0
0.001886 0.00048 0
0.001868 0.0005 0
0.00187575 0.00047875 0
0.0018655 0.0004775 0
0.00185515 0.00048575 0
0.001842 0.0005 0
0.001845 0.000475 0
0.00185525 0.00047625 0
0.00182564 0.0004829 0
0.001816 0.0005 0
0.0018245 0.0004725 0
0.00183475 0.00047375 0
0.00181425 0.00047125 0
0.00180295 0.000482657 0
0.00179 0.0005 0
0.00179375 0.00046875 0
0.001804 0.00047 0
0.00178168 0.000480619 0
0.001764 0.0005 0
0.00177325 0.00046625 0
0.0017835 0.0004675 0
0.00176428 0.000476631 0
0.001763 0.000465 0
0.001738 0.0005 0
0.001751 0.000484164 0
0.00175275 0.00046375 0
0.00174025 0.000475632 0
0.001712 0.0005 0
0.00172615 0.000478449 0
0.001722 0.00046 0
0.00173225 0.00046125 0
0.0017015 0.0004575 0
0.00171243 0.00047381 0
0.00169554 0.000479999 0
0.001686 0.0005 0
0.00167507 0.000479751 0
0.00168498 0.000464861 0
0.00166 0.0005 0
0.0016558 0.000471459 0
0.00167135 0.000462887 0
0.001681 0.000455 0
0.0016605 0.0004525 0
0.00167075 0.00045375 0
0.00164059 0.000461599 0
0.0016394 0.000479551 0
0.00162881 0.00046615 0
0.00162975 0.00044875 0
0.00165025 0.00045125 0
0.00164 0.00045 0
0.00161754 0.000458641 0
0.00161722 0.000478101 0
0.00159956 0.000458294 0
0.00160925 0.00044625 0
0.0016195 0.0004475 0
0.00157667 0.000460322 0
0.00158875 0.00044375 0
0.00159194 0.000480155 0
0.001599 0.000445 0
0.0015785 0.0004425 0
0.00155808 0.000456757 0
0.00155647 0.000476701 0
0.00154059 0.000466642 0
0.00153756 0.000450083 0
0.00154839 0.000450446 0
0.00156825 0.00044125 0
0.00151954 0.000480508 0
0.00154052 0.00048477 0
0.00153 0.0005 0
0.00154775 0.00043875 0
0.00152142 0.000456625 0
0.00152821 0.000445753 0
0.0015375 0.0004375 0
0.001504 0.0005 0
0.00149644 0.000485168 0
0.00151787 0.000443178 0
0.00152725 0.00043625 0
0.00150675 0.00043375 0
0.001517 0.000435 0
0.00148119 0.000450887 0
0.00148072 0.000475756 0
0.00146584 0.000463516 0
0.00150008 0.00046396 0
0.00149351 0.00044543 0
0.0015061 0.000446252 0
0.001476 0.00043 0
0.00148625 0.00043125 0
0.00146492 0.000482975 0
0.00144888 0.000473562 0
0.00146676 0.000444259 0
0.00145255 0.000453656 0
0.00145652 0.000438669 0
0.00141401 0.000479821 0
0.001426 0.0005 0
0.0014 0.0005 0
0.00144374 0.000438862 0
0.0014555 0.0004275 0
0.001435 0.000425 0
0.00144525 0.00042625 0
0.00142746 0.000438121 0
0.00141288 0.000443191 0
0.00141707 0.000432778 0
0.0013921 0.000438992 0
0.00140355 0.00045932 0
0.00138302 0.00045922 0
0.00142912 0.000458869 0
0.00140592 0.000430037 0
0.0014145 0.0004225 0
0.00136458 0.00045869 0
0.00137106 0.00044063 0
0.001394 0.00042 0
0.00138259 0.000428915 0
0.00137484 0.000477094 0
0.00139166 0.000478902 0
0.0013586 0.000478984 0
0.00133449 0.000478649 0
0.00134717 0.000461848 0
0.00137256 0.000425134 0
0.00135323 0.000424541 0
0.00136325 0.00041625 0
0.00136122 0.00042876 0
0.00131206 0.000447284 0
0.00133168 0.000456738 0
0.00131773 0.000465243 0
0.00134756 0.000440343 0
0.00132747 0.000436463 0
0.00133483 0.000426786 0
0.00131081 0.00041867 0
0.00132382 0.000422815 0
0.00131507 0.00043122 0
0.00131059 0.000480123 0
0.0013325 0.0004125 0
0.0012915 0.0004075 0
0.0012982 0.000418199 0
0.00128915 0.000426216 0
0.00126366 0.000447574 0
0.00127331 0.000430908 0
0.00128781 0.000444872 0
0.00125336 0.000428376 0
0.00130218 0.000431077 0
0.00127894 0.000416344 0
0.00124774 0.000469608 0
0.00127668 0.000464148 0
0.00126591 0.00048331 0
0.00126722 0.000418415 0
0.00125768 0.000411931 0
0.00124326 0.000413546 0
0.0012505 0.0004025 0
0.00122408 0.000450118 0
0.00120276 0.000447432 0
0.0012139 0.000432235 0
0.00124336 0.000444132 0
0.00123056 0.000427595 0
0.00122977 0.000409049 0
0.0012185 0.000469217 0
0.00122676 0.000485947 0
0.00120525 0.000486094 0
0.00121479 0.000413153 0
0.00119547 0.000424221 0
0.00120249 0.000407448 0
0.00119925 0.00039625 0
0.00119346 0.000406114 0
0.00117479 0.000447279 0
0.00114726 0.000445259 0
0.0011571 0.000427814 0
0.00119443 0.000466611 0
0.00117447 0.000421596 0
0.00118421 0.00040752 0
0.00117409 0.000404437 0
0.00116775 0.000470073 0
0.001179 0.0004855 0
0.00115473 0.000484802 0
0.0011685 0.0003925 0
0.00117875 0.00039375 0
0.00115454 0.000400551 0
0.001148 0.00039 0
0.00115825 0.00039125 0
0.00111703 0.000423398 0
0.00113786 0.000426731 0
0.00112589 0.000443871 0
0.00113234 0.000406671 0
0.00114754 0.000413371 0
0.001106 0.000442326 0
0.00109703 0.000424261 0
0.0011275 0.0003875 0
0.00113775 0.00038875 0
0.00110211 0.000480875 0
0.00108244 0.000471951 0
0.00109312 0.000458413 0
0.00111755 0.000399116 0
0.0010944 0.000392972 0
0.00110415 0.000405876 0
0.00108839 0.000407536 0
0.00106472 0.000476905 0
0.00107274 0.000457868 0
0.00108011 0.000392415 0
0.00106885 0.000404365 0
0.00106625 0.000388708 0
0.00105286 0.000419254 0
0.00105055 0.000395469 0
0.00104215 0.000439764 0
0.00106346 0.000440629 0
0.00100945 0.000451249 0
0.00102825 0.00045614 0
0.00101189 0.000468452 0
0.00107625 0.00038125 0
0.00105575 0.00037875 0
0.001066 0.00038 0
0.00103352 0.000476905 0
0.00101803 0.00048465 0
0.00103685 0.000389398 0
0.0010245 0.00038825 0
0.00103525 0.00037625 0
0.00101092 0.000399779 0
0.00101267 0.000382619 0
0.00101382 0.00042025 0
0.00103187 0.000405286 0
0.00103359 0.000424605 0
0.000987383 0.00045447 0
0.000999411 0.000435161 0
0.0009744 0.000433145 0
0.0010045 0.0003725 0
0.00101475 0.00037375 0
0.000970845 0.000465215 0
0.000952614 0.000467664 0
0.000961768 0.000449944 0
0.00099729 0.000387704 0
0.000978901 0.00039598 0
0.000985823 0.000381492 0
0.000962289 0.000393709 0
0.000974259 0.000381279 0
0.00097375 0.00036875 0
0.000963045 0.000376631 0
0.000958 0.0005 0
0.000932 0.0005 0
0.000947542 0.00048457 0
0.000949675 0.000385245 0
0.000936214 0.000389472 0
0.000940006 0.000374906 0
0.000966411 0.000412573 0
0.000944241 0.000407079 0
0.000903569 0.000424993 0
0.000921701 0.000402409 0
0.000927439 0.000427744 0
0.000889795 0.000409067 0
0.000903071 0.00040248 0
0.000925447 0.000377721 0
0.00093275 0.00036375 0
0.000907708 0.000387127 0
0.000911303 0.000370839 0
0.000911933 0.000455145 0
0.000930678 0.000473279 0
0.000911886 0.000482603 0
0.000887724 0.000388076 0
0.000899595 0.000375116 0
0.000902 0.00036 0
0.000889241 0.00036954 0
0.000836977 0.000459472 0
0.000836223 0.000483578 0
0.000820467 0.000474142 0
0.000871227 0.000403557 0
0.000861 0.000355 0
0.000868368 0.000365714 0
0.00085484 0.00036588 0
0.000847735 0.000402845 0
0.000823121 0.000421599 0
0.000826582 0.000398147 0
0.000846943 0.00042454 0
0.000838832 0.000378613 0
0.000835569 0.000363808 0
0.000844098 0.00036291 0
0.00085075 0.00035375 0
0.000851465 0.000477164 0
0.00083025 0.00035125 0
0.000822824 0.000368659 0
0.00081446 0.000357362 0
0.000805884 0.000371794 0
0.000753471 0.000477524 0
0.000738313 0.000473927 0
0.000739102 0.000461526 0
0.00079826 0.000358588 0
0.000788607 0.000376287 0
0.000781733 0.000357987 0
0.000816783 0.000384471 0
0.000807975 0.000404095 0
0.000752138 0.000404775 0
0.000767682 0.000417043 0
0.000749617 0.000421803 0
0.000752903 0.000384008 0
0.000738293 0.000393136 0
0.000772614 0.000394048 0
0.00076863 0.000371878 0
0.000765995 0.000354121 0
0.000779 0.000345 0
0.00071811 0.000453059 0
0.000738069 0.000437967 0
0.000752085 0.000365972 0
0.000728123 0.000374583 0
0.000741845 0.000354664 0
[...]
CELL_DATA 58684
VECTORS velocity DOUBLE
65.6774 0.202545 0
68.7455 -0.000340508 0
68.7163 -0.000209304 0
68.7585 -0.0108575 0
68.731 0.0137128 0
68.7597 -0.00495206 0
68.7313 0.00390266 0
67.9686 0.0100894 0
68.0463 -0.0893334 0
68.4401 0.000916408 0
68.6432 -0.000413716 0
68.69 -0.374601 0
68.2584 -0.308477 0
68.7784 -0.107927 0
68.1898 -0.536688 0
68.858 -0.145871 0
68.004 -0.393685 0
68.897 -0.126311 0
68.4411 -0.746506 0
69.1561 -0.105244 0
68.0506 -0.364744 0
68.9309 -0.285529 0
73.2914 -1.40313 0
67.837 0.0530202 0
67.8864 0.20621 0
67.8324 0.0974213 0
68.1481 0.49283 0
68.0488 0.0870227 0
68.1184 0.591386 0
68.4592 0.117708 0
68.0712 0.417987 0
68.2986 0.100562 0
67.9688 0.363034 0
68.8475 0.134151 0
68.7136 0.710582 0
68.7018 0.0903519 0
68.1091 0.430194 0
68.8557 0.276159 0
68.7845 0.00989005 0
68.7992 -0.000888953 0
68.8151 -0.0196258 0
68.8187 -0.0042482 0
68.8523 -0.00302944 0
68.8783 -0.0238016 0
68.8803 -0.0277514 0
68.8868 -0.0142134 0
68.913 -0.00487981 0
68.9323 -0.0393568 0
68.9296 -0.0296356 0
68.9529 -0.0106049 0
68.9822 -0.0489355 0
68.9753 -0.0512648 0
68.9738 -0.0361882 0
68.9852 -0.0150303 0
68.9982 -0.0621908 0
68.9869 -0.0519762 0
68.989 -0.0221585 0
69.0202 -0.0847644 0
69.0043 -0.0831437 0
68.9903 -0.0589606 0
69.0029 -0.0165984 0
69.0252 -0.111705 0
68.9983 -0.0945509 0
69.0196 -0.0204083 0
69.031 -0.145143 0
69.0153 -0.150517 0
69.0164 -0.122408 0
69.017 -0.0239546 0
69.0111 -0.168771 0
69.0064 -0.129237 0
68.9907 -0.0277891 0
69.0075 -0.18801 0
68.9991 -0.157106 0
69.0148 -0.212045 0
68.9546 -0.0289246 0
68.958 -0.170552 0
68.9666 -0.106984 0
68.9067 -0.0416406 0
68.9256 -0.23523 0
68.8656 -0.192394 0
68.8987 -0.20116 0
68.8519 -0.0391223 0
68.8208 -0.10736 0
68.8214 -0.244162 0
68.7746 -0.14167 0
68.7663 -0.212731 0
68.8228 -0.27716 0
68.8036 -0.315433 0
68.6785 -0.22498 0
68.6915 -0.28372 0
68.7094 -0.267156 0
68.7016 -0.329408 0
68.6087 -0.246156 0
68.6614 -0.239034 0
68.6259 -0.340117 0
68.5393 -0.30595 0
68.5141 -0.234755 0
68.5708 -0.344448 0
68.5273 -0.362368 0
68.44 -0.251784 0
68.3923 -0.313389 0
68.4574 -0.318978 0
68.3493 -0.0895563 0
68.3971 -0.351702 0
68.382 -0.325213 0
68.3719 -0.366856 0
68.2764 -0.0748464 0
68.3653 -0.371958 0
68.362 -0.399552 0
68.213 -0.222196 0
68.2607 -0.233405 0
68.2824 -0.319174 0
68.2673 -0.386923 0
68.1916 -0.16162 0
68.2465 -0.330712 0
68.2125 -0.218241 0
68.1524 -0.0243313 0
68.2254 -0.364617 0
68.2199 -0.394467 0
68.2307 -0.322395 0
68.2004 -0.221987 0
68.1609 -0.187554 0
68.2159 -0.347716 0
68.2195 -0.195318 0
68.2328 -0.331437 0
68.1786 -0.120165 0
68.2614 -0.286419 0
68.2472 -0.0830354 0
68.2743 -0.308627 0
68.3037 -0.309362 0
68.3775 -0.133469 0
68.3556 -0.215974 0
68.2984 -0.0889166 0
68.4485 -0.232269 0
68.3318 -0.0658481 0
68.4005 -0.258504 0
68.5776 -0.181332 0
68.6356 -0.0907192 0
68.6839 -0.0950074 0
68.5421 -0.162732 0
68.6392 -0.14039 0
68.5855 -0.0554426 0
68.7774 -0.114621 0
68.8792 -0.0888715 0
69.0495 -0.00589066 0
68.7867 -0.00196782 0
68.8679 -0.0569644 0
68.9274 -0.0778494 0
68.9232 0.0146863 0
69.1905 -0.0285913 0
69.2374 0.000421723 0
69.498 0.0607084 0
69.2053 0.000281898 0
69.3081 0.0431848 0
69.3718 -0.00162077 0
69.3568 0.0392748 0
69.4313 -0.00919904 0
69.6039 0.00566468 0
69.7792 0.0140568 0
69.6643 0.0150038 0
69.9531 0.00113964 0
69.7525 0.00321267 0
70.046 0.0275324 0
69.7885 0.0240751 0
70.0111 -0.00279402 0
70.2138 0.000361356 0
70.1989 -0.0877808 0
70.3048 -0.0949392 0
70.3609 -0.019037 0
70.6528 -0.0649673 0
70.1754 -0.0705809 0
70.2544 -0.123192 0
70.6152 -0.0183258 0
70.4372 -0.167275 0
70.5814 -0.221708 0
70.4789 -0.130872 0
70.7746 -0.0771176 0
70.8437 -0.156092 0
70.5927 -0.278973 0
70.9502 -0.111355 0
70.7537 -0.26967 0
70.8115 -0.310278 0
70.8198 -0.381815 0
71.0175 0.00597012 0
71.0106 -0.402276 0
70.863 -0.29496 0
71.0952 -0.300458 0
71.192 -0.376688 0
71.0442 -0.481967 0
71.1388 -0.49577 0
71.1669 -0.103403 0
71.1717 -0.502037 0
71.2011 -0.592591 0
71.2335 -0.579643 0
71.4149 -0.127251 0
71.2647 -0.452766 0
71.394 -0.665598 0
71.47 -0.510903 0
71.3863 -0.431745 0
71.4343 -0.728335 0
71.4385 -0.718424 0
71.4298 -0.115468 0
71.5102 -0.798452 0
71.541 -0.746666 0
71.7059 -0.145898 0
71.6044 -0.83055 0
71.5345 -0.560494 0
71.7089 -0.513664 0
71.7761 -0.678441 0
71.6722 -0.751449 0
71.6627 -0.901004 0
71.7241 -0.324112 0
71.789 -0.875515 0
71.7762 -1.00991 0
71.9574 -1.04408 0
71.9049 -0.0147175 0
71.8973 -0.83805 0
71.9564 -1.08734 0
71.8317 -0.251801 0
72.0127 -1.14484 0
72.1416 -0.638665 0
72.0771 -1.20221 0
72.313 -0.351468 0
72.2066 -1.03917 0
72.1885 -1.22034 0
72.2037 -0.192581 0
72.391 -1.28203 0
72.5751 -1.26355 0
72.4068 -1.04762 0
72.5027 -0.615315 0
72.6255 -1.46823 0
72.7112 -0.545127 0
73.1551 -0.0923445 0
72.5034 -1.13099 0
72.7723 -1.4588 0
72.9246 -1.59136 0
73.1383 -0.488244 0
73.0672 -1.38176 0
73.3193 -1.54456 0
73.4847 -0.181792 0
73.546 -1.55863 0
73.3901 -1.70785 0
73.319 -1.23952 0
73.692 -0.627677 0
73.8275 -0.763703 0
73.6126 -1.79358 0
74.4714 0.00534853 0
73.7746 -1.9494 0
73.9871 -1.89276 0
73.9042 -1.99607 0
74.887 -0.583228 0
74.3055 -1.7181 0
74.5778 -1.85329 0
75.2425 -0.000965599 0
74.6737 -2.19949 0
75.1934 -2.09521 0
74.847 -1.37542 0
75.147 -0.718357 0
74.9932 -2.25992 0
75.3416 -0.896548 0
75.8698 -0.136625 0
75.2435 -1.76685 0
75.4079 -2.26261 0
75.7247 -2.23006 0
75.9917 -0.511308 0
76.1576 -1.89154 0
75.8791 -2.19546 0
76.0922 -0.272723 0
76.1292 -2.35 0
76.4875 -2.28835 0
76.6267 -1.4387 0
76.0403 -0.0196621 0
76.8457 -2.15038 0
76.7046 -0.823906 0
76.9629 -0.854087 0
76.8982 -1.93504 0
76.8314 -1.51524 0
77.48 -1.79634 0
76.1941 -0.255112 0
77.3746 -1.97141 0
77.3827 -1.19816 0
77.8164 -1.38021 0
76.0837 -0.0923213 0
78.0283 -0.615355 0
77.8805 -0.342594 0
75.2031 0.0746372 0
78.2068 -1.08566 0
78.3689 -0.479258 0
76.3024 0.373257 0
75.9319 0.0613282 0
77.3395 -0.311303 0
78.3605 0.0843169 0
75.3894 0.133605 0
78.0278 0.908752 0
78.3456 0.142185 0
78.3537 0.375359 0
75.0099 0.770508 0
77.1081 1.20005 0
78.1084 1.2321 0
74.9323 0.129038 0
77.9179 1.68802 0
77.8102 1.74315 0
77.09 3.0436 0
73.7971 0.230425 0
77.9094 2.68256 0
76.3275 1.90468 0
74.7303 0.898655 0
74.7097 1.83136 0
77.7449 3.04424 0
77.0765 3.59154 0
74.1538 0.379822 0
76.9669 4.11321 0
68.7559 -0.00917119 0
68.7693 0.00052837 0
68.784 0.018507 0
68.7881 0.00260881 0
68.8203 0.00321977 0
68.8455 0.0232511 0
68.8468 0.0243656 0
68.8561 0.0113458 0
68.8802 0.00538974 0
68.8982 0.0375379 0
68.895 0.0263454 0
68.9155 0.010607 0
68.9428 0.0468994 0
68.9346 0.0485969 0
68.9324 0.0351086 0
68.9434 0.014902 0
68.9547 0.0613956 0
68.9448 0.0516748 0
68.9469 0.0220063 0
68.9741 0.0802212 0
68.9593 0.0799562 0
68.9869 0.111845 0
68.9454 0.0562665 0
68.9811 0.0810786 0
68.9861 0.130059 0
68.9484 0.0936598 0
68.9675 0.143578 0
68.9653 0.119033 0
68.9768 0.16139 0
68.9673 0.081495 0
68.9493 0.125891 0
68.9749 0.184213 0
68.959 0.0805408 0
68.9553 0.2023 0
68.9344 0.199019 0
68.9316 0.153416 0
68.9403 0.103634 0
68.8981 0.164819 0
68.8765 0.161879 0
68.9057 0.102936 0
68.8391 0.255498 0
68.7978 0.119099 0
68.7995 0.18514 0
68.8479 0.132027 0
68.7561 0.2352 0
68.7534 0.264263 0
68.7021 0.135009 0
68.736 0.226564 0
68.7107 0.267896 0
68.6749 0.294911 0
68.5816 0.169417 0
68.6049 0.213556 0
68.611 0.269336 0
68.58 0.343233 0
68.4876 0.176169 0
68.5273 0.286531 0
68.5166 0.338435 0
68.3543 0.175219 0
68.4344 0.223156 0
68.4407 0.346576 0
68.405 0.343286 0
68.2984 0.21805 0
68.3045 0.150208 0
68.2969 0.295332 0
68.4101 0.082432 0
68.2692 0.346217 0
68.2532 0.382334 0
68.2536 0.327381 0
68.2491 0.202603 0
68.2152 0.377989 0
68.206 0.3411 0
68.0811 0.149873 0
68.1765 0.303492 0
68.1288 0.338379 0
68.1126 0.353416 0
68.1454 0.0935002 0
68.0948 0.261323 0
68.1032 0.372462 0
68.0981 0.206779 0
68.1008 0.335052 0
68.077 0.338643 0
68.053 0.262535 0
68.0365 0.108733 0
68.0763 0.288231 0
68.1038 0.325588 0
68.043 0.0749553 0
68.1039 0.313389 0
68.0496 0.242913 0
68.1445 0.234449 0
68.0671 0.192171 0
68.1481 0.286804 0
68.2582 0.260548 0
68.173 0.0607527 0
68.1574 0.20042 0
68.319 0.248029 0
68.2564 0.154385 0
68.1423 0.0810648 0
68.3667 0.187372 0
68.4309 0.14974 0
68.3496 0.0267826 0
68.4812 0.0346068 0
68.5405 0.0701 0
68.5848 0.124942 0
68.3858 0.0856886 0
68.6976 0.0734903 0
68.7677 0.0573731 0
68.8933 -0.0328282 0
68.7305 0.0185466 0
68.9426 0.0415738 0
68.938 0.0241924 0
68.6756 0.0324119 0
69.0237 0.0104061 0
69.2012 -0.0272757 0
69.2775 -0.0395478 0
69.0815 0.00494321 0
69.3871 0.0130244 0
69.3727 -0.0160789 0
69.064 -0.00303493 0
69.465 -0.0220579 0
69.6814 0.0457548 0
69.5357 -0.0165268 0
69.6932 0.00522095 0
69.8305 -0.0388762 0
69.8422 0.0529934 0
69.7419 -0.00793159 0
69.8661 0.0725401 0
70.0147 0.112334 0
70.0823 0.0158313 0
70.0228 0.130689 0
70.2051 0.220699 0
70.4477 0.0367112 0
69.9961 0.0846046 0
70.2716 0.203041 0
70.3165 0.246728 0
70.3986 0.0381909 0
70.3834 0.245482 0
70.5786 0.409809 0
70.6108 0.355343 0
70.7476 0.0971864 0
70.7775 0.411579 0
70.6049 0.108512 0
70.4487 0.252078 0
70.7182 0.431298 0
70.9004 0.539978 0
70.9152 0.573557 0
70.6942 -0.00613356 0
71.0893 0.7 0
71.0992 0.684787 0
71.1808 0.617651 0
71.2145 0.293735 0
71.3492 0.305736 0
71.1964 0.685634 0
71.0421 0.168295 0
71.3427 0.769907 0
71.3319 0.762546 0
71.3894 0.698648 0
71.3757 0.195369 0
71.4255 0.770726 0
71.6435 0.960795 0
71.4868 0.345088 0
71.4793 0.371396 0
71.5759 0.768196 0
71.7726 0.974257 0
71.3843 0.224259 0
71.8273 1.03236 0
71.8436 0.987056 0
71.6593 0.172759 0
72.0216 1.10048 0
72.0525 1.05749 0
72.0579 0.864665 0
71.8276 0.362717 0
71.8284 0.421246 0
71.9712 1.002 0
71.74 0.278765 0
72.1983 1.18495 0
72.2403 1.09578 0
72.1857 0.975244 0
71.87 0.141919 0
72.4139 1.13657 0
72.4143 1.15404 0
72.1978 0.616986 0
72.5071 0.856603 0
72.2234 0.508453 0
72.456 1.08062 0
72.1072 0.310425 0
72.6691 1.23433 0
72.6837 1.18541 0
72.1054 0.245562 0
72.6947 1.06048 0
72.9721 1.21745 0
72.8391 1.19568 0
72.706 0.260411 0
73.2698 1.26366 0
73.3083 1.36182 0
72.6372 0.805168 0
73.1114 0.981092 0
72.7174 0.469628 0
73.5265 1.45174 0
72.9896 0.149077 0
73.5668 1.40979 0
73.5577 1.35786 0
72.7264 0.115238 0
73.4401 1.22663 0
73.8921 1.53087 0
74.0062 1.5746 0
73.7067 0.393072 0
74.0853 1.59446 0
74.1678 1.74427 0
73.4121 0.882386 0
74.4663 1.21853 0
74.0926 0.411504 0
74.384 1.82361 0
74.3176 0.145252 0
74.571 1.83716 0
74.7241 1.8826 0
73.9022 0.101011 0
74.7683 1.66089 0
75.145 2.07496 0
75.4465 2.08479 0
74.855 0.40228 0
75.2999 1.99821 0
75.7066 2.29578 0
74.9826 1.46267 0
76.1317 1.61553 0
75.2556 0.379538 0
75.5682 2.04522 0
75.5893 0.167274 0
76.1902 2.38101 0
76.3253 2.22612 0
75.2906 0.131069 0
76.4105 1.86324 0
76.6844 2.11934 0
77.0607 2.07028 0
76.0244 0.253888 0
77.2939 1.99799 0
77.4147 1.8161 0
76.2436 0.447817 0
77.5155 1.93559 0
77.1549 1.00811 0
76.2197 0.776593 0
75.9838 0.547151 0
77.7676 1.72155 0
77.7597 1.1146 0
78.1832 1.13291 0
75.9653 0.0236798 0
77.7814 0.579106 0
78.3177 0.413926 0
76.0037 0.112872 0
77.5629 0.526957 0
78.4313 -0.148628 0
77.3229 -0.127489 0
76.1015 0.105144 0
78.3547 -0.509027 0
78.3419 -0.867577 0
76.9788 0.37613 0
77.0274 -1.36352 0
75.4722 -1.43225 0
78.1001 -1.04521 0
75.3181 -0.120534 0
78.1966 -1.80759 0
76.4023 4.61954 0
76.8851 4.05134 0
73.1795 1.24375 0
76.3569 4.60841 0
74.8011 4.4022 0
75.7926 5.11054 0
73.53 0.484996 0
75.1859 5.31125 0
74.436 5.34383 0
72.7458 0.628113 0
74.4215 5.64117 0
78.1547 -2.20771 0
75.4473 -0.0490123 0
78.0118 -2.52068 0
77.1293 -2.99531 0
76.5859 -2.52294 0
74.9844 -0.139958 0
77.3397 -3.45282 0
73.6278 5.28169 0
76.8515 -4.42734 0
75.0291 -0.765096 0
76.6683 -4.30128 0
75.9374 -5.05599 0
71.969 1.50722 0
75.7113 -5.00687 0
76.4526 -2.44236 0
76.187 -4.47329 0
74.7497 -3.3211 0
73.8569 -0.511093 0
75.4898 -4.60671 0
74.9665 -4.96381 0
73.1912 5.5558 0
74.991 -4.98753 0
74.3224 -0.263363 0
74.2837 -5.29591 0
73.8394 -5.78532 0
73.5266 -0.351858 0
73.0814 -5.94922 0
73.4471 -4.30144 0
72.1593 -0.415645 0
72.398 -6.05106 0
72.4462 -3.30832 0
73.5264 -2.51889 0
72.8575 -5.18421 0
72.0116 -5.47018 0
73.7622 2.86914 0
71.3301 0.314478 0
73.3318 1.92241 0
72.574 -0.0354342 0
71.6663 -5.89033 0
73.0002 5.2868 0
71.1661 0.228003 0
72.4904 4.48464 0
71.0498 -5.84679 0
72.2466 -1.1301 0
70.5403 -4.14574 0
72.4703 6.00492 0
70.3388 1.2818 0
72.4354 5.92404 0
70.9266 5.01221 0
70.491 0.260066 0
71.4441 5.26483 0
70.9132 -4.37038 0
71.9258 -0.328722 0
70.4587 -5.94761 0
70.5151 -5.7557 0
71.6631 5.64975 0
70.3348 5.42877 0
69.9894 0.00667496 0
71.0583 5.6054 0
69.7131 3.36643 0
70.0604 1.49713 0
69.7776 -5.89739 0
70.3455 -0.693425 0
70.0415 -5.7969 0
69.4017 5.69908 0
69.347 -5.41005 0
69.6914 -0.70484 0
69.6078 -2.33734 0
68.5445 -5.19605 0
70.6039 -2.68399 0
68.389 -5.00057 0
69.3391 -0.209522 0
67.7519 -4.81139 0
69.2999 1.98494 0
69.5299 0.295196 0
69.1357 4.78854 0
69.1675 0.0931432 0
68.9194 5.6152 0
68.8143 5.27688 0
68.9999 0.141236 0
68.2869 4.59156 0
68.99 0.117208 0
68.7072 -4.44916 0
69.3509 -0.420794 0
69.5692 4.06075 0
68.4971 0.747674 0
68.0837 4.34331 0
67.6861 -4.81378 0
69.4323 -0.18281 0
66.4989 -4.0934 0
68.3048 -0.647733 0
67.0766 -4.03957 0
68.9359 1.88496 0
67.8669 0.155779 0
69.2386 -3.56309 0
67.8752 -0.284663 0
66.6147 -3.83119 0
67.6354 3.92662 0
67.7263 -3.03963 0
68.1047 -0.626044 0
66.8571 -3.31619 0
68.499 2.26767 0
66.9263 1.38043 0
67.2817 3.40621 0
68.4222 -0.527221 0
66.7402 -3.6349 0
68.159 0.486228 0
67.1569 4.56148 0
68.4283 -1.7198 0
67.8549 -0.137336 0
66.5459 -3.31935 0
67.0633 4.11824 0
68.391 0.633809 0
67.0169 3.25574 0
66.8221 3.21228 0
68.208 0.367111 0
66.2684 2.86017 0
65.9198 -2.95224 0
68.118 -0.349913 0
65.6612 -2.95802 0
67.5931 -1.43338 0
68.0323 -0.195174 0
65.3135 -2.04871 0
66.2157 3.57236 0
68.3897 0.463418 0
67.2992 2.31521 0
65.7129 -1.82088 0
68.2028 -0.228728 0
65.2356 -1.71662 0
65.353 2.62556 0
68.2411 0.211128 0
65.6763 2.48342 0
65.9574 2.02208 0
67.8631 0.022453 0
65.3373 2.14993 0
66.2515 -1.10036 0
68.2984 -0.384257 0
65.6592 -1.00056 0
64.7271 -0.652713 0
68.0142 -0.555611 0
64.8992 -0.532023 0
67.8017 0.637103 0
68.0909 0.0145419 0
66.9961 1.7027 0
65.2443 1.68899 0
68.1972 0.025351 0
64.7871 1.11696 0
68.1839 -0.11931 0
67.9408 -0.036396 0
64.7839 -0.185402 0
65.1825 -0.0638124 0
68.0719 -0.0367583 0
66.9947 0.203619 0
65.4311 0.372651 0
68.006 -0.010913 0
67.7811 -3.95016 0
68.4105 -0.832037 0
67.9333 0.196733 0
68.3933 4.74891 0
68.9483 -5.39728 0
71.0843 -0.611251 0
69.8913 0.624332 0
70.8392 5.90885 0
68.0838 0.216592 0
65.8399 3.41882 0
65.4698 -2.0524 0
67.9319 -0.219876 0
68.4281 -0.818963 0
68.1308 -2.64853 0
68.5992 0.718409 0
68.1218 0.314141 0
68.1147 -0.0153927 0
65.2002 1.48364 0
69.1278 0.360899 0
68.8942 1.07628 0
68.9771 -1.04423 0
69.7318 -0.458179 0
73.5373 -0.794651 0
73.456 -5.79705 0
74.6853 5.34079 0
73.3111 0.282109 0
68.5435 0.96474 0
69.3817 5.46966 0
68.6477 -4.92977 0
69.2491 -1.73744 0
67.8649 -0.966517 0
66.0546 -0.178369 0
67.1179 4.05998 0
68.723 1.22956 0
68.5927 -1.16422 0
65.9923 -3.32981 0
77.8181 -3.02463 0
74.8463 -0.357354 0
74.6694 0.430919 0
77.9297 2.26818 0
68.5963 -0.728401 0
68.0186 -0.18726 0
68.0264 0.492383 0
69.0386 0.582904 0
71.8261 0.436412 0
71.5478 2.6685 0
70.4749 -1.25166 0
72.6606 -1.14273 0
70.7879 3.21935 0
72.7995 5.64013 0
72.0861 -6.00287 0
71.4539 -1.20652 0
73.9373 1.00816 0
74.8439 3.2567 0
73.8529 -1.78147 0
74.3023 -0.0227615 0
76.0259 0.183333 0
78.2573 0.88222 0
77.8923 -1.43112 0
75.5518 -0.0125271 0
75.6344 0.00941001 0
76.3998 2.33422 0
76.5494 -2.14625 0
76.1523 -0.308663 0
69.1518 -1.15139 0
68.8295 -0.413413 0
68.8787 0.814664 0
69.1426 0.742181 0
68.8418 0.760703 0
68.1013 0.615108 0
67.8585 -0.297357 0
68.7777 -0.702972 0
75.438 0.425415 0
76.5294 0.644685 0
75.6886 -0.354769 0
75.6135 -0.00785632 0
67.0844 -0.731053 0
68.1139 -0.100363 0
68.2221 -0.212059 0
68.2364 -0.423133 0
68.0246 0.161679 0
68.6254 0.627918 0
74.8254 1.92845 0
74.5778 0.254476 0
75.532 -0.00814602 0
74.6137 -2.0478 0
70.8057 -0.00293257 0
70.3153 -1.82664 0
71.0039 1.11587 0
70.018 0.271648 0
68.3129 2.83283 0
67.7331 5.03807 0
67.6826 -4.38028 0
68.6877 -2.37711 0
69.0234 -1.62976 0
68.3087 -1.5865 0
68.3164 3.18836 0
68.7169 1.61194 0
76.2395 -0.411784 0
76.1188 -0.175451 0
76.0071 0.156213 0
76.4026 1.47572 0
69.5295 -3.65385 0
70.255 -3.51737 0
69.9722 3.03205 0
70.3016 5.88349 0
69.1145 -2.77443 0
69.8726 -1.545 0
69.7077 2.03957 0
69.2025 1.18555 0
73.8474 1.58345 0
73.3938 0.15666 0
74.0796 0.00143465 0
73.1733 -1.63775 0
68.1818 0.543559 0
67.9602 -0.0153491 0
75.5788 -0.29222 0
75.9591 -1.34981 0
75.6762 0.844215 0
74.9761 0.113592 0
69.0068 -0.749311 0
68.8967 -0.879533 0
69.1912 1.32139 0
68.8702 0.573565 0
68.0732 -0.422675 0
68.7001 -0.656185 0
68.4479 0.743489 0
67.9911 0.314411 0
65.557 1.22407 0
67.8824 1.01578 0
74.3708 -2.0233 0
76.8889 -4.01135 0
77.3801 3.43578 0
74.1138 1.42486 0
67.7299 -1.68733 0
66.0154 -2.08995 0
72.4045 0.202398 0
72.7285 1.15899 0
71.7117 0.10922 0
72.3744 1.19252 0
72.4964 -1.27725 0
72.3704 -0.180883 0
71.8201 -0.980641 0
71.7723 -0.0170331 0
74.3585 -0.422985 0
74.0539 -1.10039 0
74.0046 0.582742 0
73.7535 -0.00437158 0
68.0311 0.0856884 0
68.2558 0.338713 0
67.5246 0.285106 0
65.7124 0.567893 0
68.2252 -0.204123 0
67.9897 -0.0875449 0
68.1694 0.114621 0
68.152 -0.410165 0
78.3463 -0.503404 0
75.753 -0.732718 0
76.657 0.902255 0
78.2774 -0.402361 0
68.4785 -0.110678 0
68.734 -0.432407 0
68.0214 0.206595 0
68.7939 0.212231 0
72.9402 -0.286429 0
72.8317 -0.76124 0
73.0914 0.43168 0
72.5525 0.134091 0
71.5694 0.263423 0
71.6725 0.841489 0
71.5669 -0.843964 0
71.5256 -0.193954 0
68.9726 -0.626193 0
69.3363 -1.61694 0
69.0226 1.20299 0
68.8667 0.893921 0
69.2113 2.0803 0
68.3957 1.16382 0
68.7242 -1.32935 0
68.9966 -2.09826 0
76.5212 0.575819 0
76.6783 2.06757 0
76.9462 -1.97394 0
76.9893 -0.683726 0
68.4662 -0.63092 0
68.5911 -0.744235 0
68.5363 0.602345 0
68.2147 0.728378 0
71.5462 0.918424 0
71.2673 0.258243 0
71.3053 -0.128292 0
71.3327 -0.623343 0
73.1906 2.82037 0
74.6921 4.74092 0
74.2523 -5.69803 0
73.8679 -2.1829 0
66.4009 -2.46787 0
68.1462 -2.56873 0
72.9935 -2.0289 0
73.3597 -0.718658 0
72.332 0.321556 0
74.2656 1.95221 0
66.0765 3.25764 0
67.6343 1.9567 0
72.0015 -0.0702614 0
72.1801 -0.772238 0
72.2823 0.466452 0
72.1744 0.126963 0
75.0288 -0.169421 0
75.0671 -0.795765 0
75.4581 1.06613 0
74.6982 0.1644 0
71.8803 0.901092 0
70.5563 0.21633 0
71.4201 -0.224181 0
71.8548 -2.02465 0
75.4658 1.02129 0
75.0169 1.83522 0
75.4646 -2.13294 0
76.3436 -1.07418 0
71.1623 -2.4998 0
71.9632 -1.16063 0
71.3893 1.71967 0
73.1591 4.05066 0
70.9278 0.498928 0
70.9399 0.0798632 0
71.1627 -0.119855 0
70.8754 -0.372748 0
71.5984 -0.237157 0
71.6823 -0.0122393 0
71.8411 0.142774 0
71.7157 0.689878 0
69.4959 0.349472 0
69.3825 0.954143 0
69.5973 -0.814863 0
70.1081 -0.222155 0
70.6737 1.78801 0
69.5793 1.38977 0
69.2466 -2.03758 0
68.785 -2.15164 0
76.0427 0.155108 0
75.8842 0.0681651 0
75.8759 -0.0159393 0
76.5613 -0.335188 0
69.5625 2.53648 0
69.8868 1.69379 0
69.1269 -0.665196 0
69.0331 -0.24433 0
69.0147 0.19591 0
69.3651 0.628682 0
67.609 -0.623199 0
68.3454 -0.730689 0
78.0262 -1.55143 0
75.9474 -0.952485 0
75.818 2.20588 0
78.1471 1.57447 0
68.5899 -0.70375 0
67.9975 -0.231086 0
67.9651 0.220005 0
68.6066 0.752698 0
68.8058 0.0972203 0
68.8056 0.473102 0
68.8389 -0.258054 0
68.8993 0.00901608 0
66.7116 -0.24395 0
64.7772 0.093243 0
73.1527 2.13061 0
75.6197 1.7137 0
74.7642 -1.50965 0
75.4104 -3.1629 0
68.3811 1.39122 0
68.0668 0.63652 0
67.8349 -0.0141769 0
68.2258 -0.0602461 0
70.0187 4.63953 0
68.6039 2.85141 0
69.7382 -2.88014 0
68.9722 -5.60744 0
68.1973 0.366856 0
68.2017 0.315292 0
73.9672 0.766522 0
74.0319 1.65876 0
73.6679 -1.74623 0
74.2753 -0.349743 0
71.3082 -0.161607 0
71.4247 -0.103322 0
71.5793 0.108535 0
71.3855 0.667631 0
77.8478 -1.36492 0
77.2414 -0.0146953 0
76.9069 0.909599 0
77.9169 1.42159 0
68.1965 0.0237408 0
67.816 -1.23662 0
68.7689 0.824343 0
68.85 1.35873 0
68.9062 -1.64773 0
68.7786 -0.706675 0
68.0462 0.0469833 0
68.2236 0.163906 0
70.6907 -3.84403 0
69.7846 -2.17353 0