# vtk DataFile Version 3.0
Unstructured Grid for Triangles
ASCII
DATASET UNSTRUCTURED_GRID
POINTS 29612 DOUBLE
-0.000272397 1.23686e-05 0
-0.000295789 9.5838e-06 0
-0.000277865 -3.1235e-06 0
0.002024 0.0005 0
0.00203975 0.00049875 0
0.00205 0.0005 0
0.00203975 -0.00049875 0
0.002024 -0.0005 0
0.00205 -0.0005 0
0.0020295 0.0004975 0
0.0020295 -0.0004975 0
0.00201925 0.00049625 0
0.00201925 -0.00049625 0
-0.000529747 -0.000479887 0
-0.00055 -0.0005 0
-0.000524 -0.0005 0
-0.000505983 -0.000484325 0
-0.000498 -0.0005 0
-0.000472 -0.0005 0
-0.000483864 -0.000487761 0
-0.000446 -0.0005 0
-0.000459 -0.000484239 0
-0.000429453 -0.000424878 0
-0.000447486 -0.000420717 0
-0.000441829 -0.000436609 0
-0.000512578 -0.000462101 0
-0.000493078 -0.000453594 0
-0.00050706 -0.000439006 0
-0.000419243 -0.000477545 0
-0.000440307 -0.000471837 0
-0.00043691 -0.000486724 0
-0.000516129 -0.000420948 0
-0.000495355 -0.000415432 0
-0.000511646 -0.00040128 0
-0.000394697 -0.000481197 0
-0.000406302 -0.000455143 0
-0.000537257 -0.000388197 0
-0.000531099 -0.000407297 0
-0.000523982 -0.000388328 0
-0.000370063 -0.000472956 0
-0.000368 -0.0005 0
-0.00035308 -0.000485302 0
-0.0005072 -0.00037867 0
-0.000485506 -0.000383975 0
-0.000490949 -0.000359622 0
-0.000337127 -0.000484331 0
-0.000316 -0.0005 0
-0.000326495 -0.00047415 0
-0.00055 -0.00035 0
-0.000531201 -0.000370361 0
-0.000528367 -0.000346817 0
-0.000363898 -0.000448809 0
-0.000383315 -0.000460336 0
-3.26269e-05 -0.000415503 0
-5.99662e-05 -0.000409556 0
-5.46944e-05 -0.000429488 0
-0.000529747 0.000479887 0
-0.00055 0.0005 0
-0.00055 0.000475 0
-0.00055 0.00045 0
-0.000534834 0.000429171 0
-0.000526943 0.000442611 0
-0.000534026 0.000460176 0
-0.000531099 0.000407297 0
-0.000511672 0.000401178 0
-0.000516129 0.000420948 0
-0.000524 0.0005 0
-0.000505983 0.000484325 0
-0.000531201 0.000370361 0
-0.0005072 0.00037867 0
-0.000523982 0.000388328 0
-0.00048341 0.000469132 0
-0.000483679 0.000487539 0
-0.000528367 0.000346817 0
-0.00055 0.000325 0
-0.000525657 0.000328474 0
-0.000498 0.0005 0
-0.000530382 0.0003125 0
-0.000419243 0.000477545 0
-0.000440015 0.00047335 0
-0.000425917 0.000463678 0
-0.000435138 0.000262661 0
-0.000414982 0.000274462 0
-0.000435654 0.000285217 0
-0.000459 0.000484239 0
-0.000436852 0.000487027 0
-0.000446 0.0005 0
-0.000533308 0.000292503 0
-0.00055 0.000275 0
-0.000523377 0.000276953 0
-0.000425282 0.000446352 0
-0.000409368 0.000435728 0
-0.000406302 0.000455143 0
0.002009 0.000495 0
0.001998 0.0005 0
0.00199875 0.00049375 0
0.0019885 0.0004925 0
0.001972 0.0005 0
0.00197825 0.00049125 0
0.001968 0.00049 0
0.00195775 0.00048875 0
0.001946 0.0005 0
0.0019475 0.0004875 0
0.00193725 0.00048625 0
0.00192 0.0005 0
0.001927 0.000485 0
0.00191675 0.00048375 0
0.0019065 0.0004825 0
0.001894 0.0005 0
0.00189625 0.00048125 0
0.001886 0.00048 0
0.001868 0.0005 0
0.00187575 0.00047875 0
0.0018655 0.0004775 0
0.00185515 0.00048575 0
0.001842 0.0005 0
0.001845 0.000475 0
0.00185525 0.00047625 0
0.00182564 0.0004829 0
0.001816 0.0005 0
0.0018245 0.0004725 0
0.00183475 0.00047375 0
0.00181425 0.00047125 0
0.00180295 0.000482657 0
0.00179 0.0005 0
0.00179375 0.00046875 0
0.001804 0.00047 0
0.00178168 0.000480619 0
0.001764 0.0005 0
0.00177325 0.00046625 0
0.0017835 0.0004675 0
0.00176428 0.000476631 0
0.001763 0.000465 0
0.001738 0.0005 0
0.001751 0.000484164 0
0.00175275 0.00046375 0
0.00174025 0.000475632 0
0.001712 0.0005 0
0.00172615 0.000478449 0
0.001722 0.00046 0
0.00173225 0.00046125 0
0.0017015 0.0004575 0
0.00171243 0.00047381 0
0.00169554 0.000479999 0
0.001686 0.0005 0
0.00167507 0.000479751 0
0.00168498 0.000464861 0
0.00166 0.0005 0
0.0016558 0.000471459 0
0.00167135 0.000462887 0
0.001681 0.000455 0
0.0016605 0.0004525 0
0.00167075 0.00045375 0
0.00164059 0.000461599 0
0.0016394 0.000479551 0
0.00162881 0.00046615 0
0.00162975 0.00044875 0
0.00165025 0.00045125 0
0.00164 0.00045 0
0.00161754 0.000458641 0
0.00161722 0.000478101 0
0.00159956 0.000458294 0
0.00160925 0.00044625 0
0.0016195 0.0004475 0
0.00157667 0.000460322 0
0.00158875 0.00044375 0
0.00159194 0.000480155 0
0.001599 0.000445 0
0.0015785 0.0004425 0
0.00155808 0.000456757 0
0.00155647 0.000476701 0
0.00154059 0.000466642 0
0.00153756 0.000450083 0
0.00154839 0.000450446 0
0.00156825 0.00044125 0
0.00151954 0.000480508 0
0.00154052 0.00048477 0
0.00153 0.0005 0
0.00154775 0.00043875 0
0.00152142 0.000456625 0
0.00152821 0.000445753 0
0.0015375 0.0004375 0
0.001504 0.0005 0
0.00149644 0.000485168 0
0.00151787 0.000443178 0
0.00152725 0.00043625 0
0.00150675 0.00043375 0
0.001517 0.000435 0
0.00148119 0.000450887 0
0.00148072 0.000475756 0
0.00146584 0.000463516 0
0.00150008 0.00046396 0
0.00149351 0.00044543 0
0.0015061 0.000446252 0
0.001476 0.00043 0
0.00148625 0.00043125 0
0.00146492 0.000482975 0
0.00144888 0.000473562 0
0.00146676 0.000444259 0
0.00145255 0.000453656 0
0.00145652 0.000438669 0
0.00141401 0.000479821 0
0.001426 0.0005 0
0.0014 0.0005 0
0.00144374 0.000438862 0
0.0014555 0.0004275 0
0.001435 0.000425 0
0.00144525 0.00042625 0
0.00142746 0.000438121 0
0.00141288 0.000443191 0
0.00141707 0.000432778 0
0.0013921 0.000438992 0
0.00140355 0.00045932 0
0.00138302 0.00045922 0
0.00142912 0.000458869 0
0.00140592 0.000430037 0
0.0014145 0.0004225 0
0.00136458 0.00045869 0
0.00137106 0.00044063 0
0.001394 0.00042 0
0.00138259 0.000428915 0
0.00137484 0.000477094 0
0.00139166 0.000478902 0
0.0013586 0.000478984 0
0.00133449 0.000478649 0
0.00134717 0.000461848 0
0.00137256 0.000425134 0
0.00135323 0.000424541 0
0.00136325 0.00041625 0
0.00136122 0.00042876 0
0.00131206 0.000447284 0
0.00133168 0.000456738 0
0.00131773 0.000465243 0
0.00134756 0.000440343 0
0.00132747 0.000436463 0
0.00133483 0.000426786 0
0.00131081 0.00041867 0
0.00132382 0.000422815 0
0.00131507 0.00043122 0
0.00131059 0.000480123 0
0.0013325 0.0004125 0
0.0012915 0.0004075 0
0.0012982 0.000418199 0
0.00128915 0.000426216 0
0.00126366 0.000447574 0
0.00127331 0.000430908 0
0.00128781 0.000444872 0
0.00125336 0.000428376 0
0.00130218 0.000431077 0
0.00127894 0.000416344 0
0.00124774 0.000469608 0
0.00127668 0.000464148 0
0.00126591 0.00048331 0
0.00126722 0.000418415 0
0.00125768 0.000411931 0
0.00124326 0.000413546 0
0.0012505 0.0004025 0
0.00122408 0.000450118 0
0.00120276 0.000447432 0
0.0012139 0.000432235 0
0.00124336 0.000444132 0
0.00123056 0.000427595 0
0.00122977 0.000409049 0
0.0012185 0.000469217 0
0.00122676 0.000485947 0
0.00120525 0.000486094 0
0.00121479 0.000413153 0
0.00119547 0.000424221 0
0.00120249 0.000407448 0
0.00119925 0.00039625 0
0.00119346 0.000406114 0
0.00117479 0.000447279 0
0.00114726 0.000445259 0
0.0011571 0.000427814 0
0.00119443 0.000466611 0
0.00117447 0.000421596 0
0.00118421 0.00040752 0
0.00117409 0.000404437 0
0.00116775 0.000470073 0
0.001179 0.0004855 0
0.00115473 0.000484802 0
0.0011685 0.0003925 0
0.00117875 0.00039375 0
0.00115454 0.000400551 0
0.001148 0.00039 0
0.00115825 0.00039125 0
0.00111703 0.000423398 0
0.00113786 0.000426731 0
0.00112589 0.000443871 0
0.00113234 0.000406671 0
0.00114754 0.000413371 0
0.001106 0.000442326 0
0.00109703 0.000424261 0
0.0011275 0.0003875 0
0.00113775 0.00038875 0
0.00110211 0.000480875 0
0.00108244 0.000471951 0
0.00109312 0.000458413 0
0.00111755 0.000399116 0
0.0010944 0.000392972 0
0.00110415 0.000405876 0
0.00108839 0.000407536 0
0.00106472 0.000476905 0
0.00107274 0.000457868 0
0.00108011 0.000392415 0
0.00106885 0.000404365 0
0.00106625 0.000388708 0
0.00105286 0.000419254 0
0.00105055 0.000395469 0
0.00104215 0.000439764 0
0.00106346 0.000440629 0
0.00100945 0.000451249 0
0.00102825 0.00045614 0
0.00101189 0.000468452 0
0.00107625 0.00038125 0
0.00105575 0.00037875 0
0.001066 0.00038 0
0.00103352 0.000476905 0
0.00101803 0.00048465 0
0.00103685 0.000389398 0
0.0010245 0.00038825 0
0.00103525 0.00037625 0
0.00101092 0.000399779 0
0.00101267 0.000382619 0
0.00101382 0.00042025 0
0.00103187 0.000405286 0
0.00103359 0.000424605 0
0.000987383 0.00045447 0
0.000999411 0.000435161 0
0.0009744 0.000433145 0
0.0010045 0.0003725 0
0.00101475 0.00037375 0
0.000970845 0.000465215 0
0.000952614 0.000467664 0
0.000961768 0.000449944 0
0.00099729 0.000387704 0
0.000978901 0.00039598 0
0.000985823 0.000381492 0
0.000962289 0.000393709 0
0.000974259 0.000381279 0
0.00097375 0.00036875 0
0.000963045 0.000376631 0
0.000958 0.0005 0
0.000932 0.0005 0
0.000947542 0.00048457 0
0.000949675 0.000385245 0
0.000936214 0.000389472 0
0.000940006 0.000374906 0
0.000966411 0.000412573 0
0.000944241 0.000407079 0
0.000903569 0.000424993 0
0.000921701 0.000402409 0
0.000927439 0.000427744 0
0.000889795 0.000409067 0
0.000903071 0.00040248 0
0.000925447 0.000377721 0
0.00093275 0.00036375 0
0.000907708 0.000387127 0
0.000911303 0.000370839 0
0.000911933 0.000455145 0
0.000930678 0.000473279 0
0.000911886 0.000482603 0
0.000887724 0.000388076 0
0.000899595 0.000375116 0
0.000902 0.00036 0
0.000889241 0.00036954 0
0.000836977 0.000459472 0
0.000836223 0.000483578 0
0.000820467 0.000474142 0
0.000871227 0.000403557 0
0.000861 0.000355 0
0.000868368 0.000365714 0
0.00085484 0.00036588 0
0.000847735 0.000402845 0
0.000823121 0.000421599 0
0.000826582 0.000398147 0
0.000846943 0.00042454 0
0.000838832 0.000378613 0
0.000835569 0.000363808 0
0.000844098 0.00036291 0
0.00085075 0.00035375 0
0.000851465 0.000477164 0
0.00083025 0.00035125 0
0.000822824 0.000368659 0
0.00081446 0.000357362 0
0.000805884 0.000371794 0
0.000753471 0.000477524 0
0.000738313 0.000473927 0
0.000739102 0.000461526 0
0.00079826 0.000358588 0
0.000788607 0.000376287 0
0.000781733 0.000357987 0
0.000816783 0.000384471 0
0.000807975 0.000404095 0
0.000752138 0.000404775 0
0.000767682 0.000417043 0
0.000749617 0.000421803 0
0.000752903 0.000384008 0
0.000738293 0.000393136 0
0.000772614 0.000394048 0
0.00076863 0.000371878 0
0.000765995 0.000354121 0
0.000779 0.000345 0
0.00071811 0.000453059 0
0.000738069 0.000437967 0
0.000752085 0.000365972 0
0.000728123 0.000374583 0
0.000741845 0.000354664 0
[...]
CELL_DATA 58684
VECTORS velocity DOUBLE
64.0787 0.235779 0
67.6622 0.000234562 0
67.6649 -8.64662e-05 0
67.6622 0.00416375 0
67.6646 -0.0048191 0
67.6637 0.00249696 0
67.6669 -0.00204972 0
67.6926 0.00086284 0
67.6369 0.0791912 0
67.3009 -0.00197634 0
67.0938 -0.00296474 0
67.0039 0.0726915 0
67.4931 0.255006 0
66.9464 0.0123322 0
67.5473 0.445585 0
66.8841 -0.0438719 0
67.6715 0.346439 0
66.9184 -0.0502197 0
67.365 0.584181 0
67.1783 0.000294155 0
67.644 0.318487 0
66.9136 -0.10353 0
72.4138 -0.778945 0
67.7706 -0.0503563 0
67.7479 -0.178241 0
67.772 -0.0932401 0
67.5828 -0.416516 0
67.6346 -0.0785454 0
67.5996 -0.514156 0
67.3084 -0.101284 0
67.6318 -0.36758 0
67.4256 -0.0754405 0
67.7346 -0.338323 0
66.9258 0.00529924 0
66.9434 0.318455 0
67.0152 -0.0296532 0
67.604 -0.360156 0
66.8758 0.0505928 0
67.6576 -0.00056599 0
67.6558 0.00257729 0
67.6559 0.0113488 0
67.6574 0.00938676 0
67.654 0.00650724 0
67.6444 0.0215654 0
67.652 0.0295537 0
67.6593 0.0282818 0
67.6569 0.0130603 0
67.6501 0.049934 0
67.6631 0.0498707 0
67.6718 0.0226634 0
67.6495 0.072159 0
67.6755 0.0811786 0
67.6935 0.0713472 0
67.7158 0.035656 0
67.7266 0.0955954 0
67.7559 0.0902078 0
67.8088 0.0485578 0
67.8067 0.125135 0
67.8546 0.128241 0
67.9051 0.106334 0
67.9517 0.0428582 0
67.9345 0.165214 0
68.0648 0.156816 0
68.1171 0.0505571 0
68.1022 0.225999 0
68.154 0.255983 0
68.2194 0.214049 0
68.2968 0.0575017 0
68.3177 0.276868 0
68.3965 0.228703 0
68.5095 0.0595733 0
68.4992 0.29532 0
68.5642 0.263616 0
68.6078 0.303685 0
68.7742 0.060499 0
68.8001 0.238319 0
68.8209 0.136288 0
69.0041 0.0688754 0
68.9797 0.298711 0
69.1547 0.231416 0
69.0409 0.251107 0
69.2041 0.053207 0
69.2655 0.112904 0
69.2301 0.266729 0
69.3329 0.119699 0
69.3306 0.194317 0
69.2721 0.280055 0
69.2981 0.293073 0
69.3802 0.152242 0
69.3461 0.200369 0
69.3714 0.212419 0
69.3533 0.243062 0
69.3354 0.138247 0
69.3367 0.15299 0
69.3396 0.213405 0
69.2308 0.155536 0
69.2778 0.129519 0
69.2783 0.181245 0
69.2075 0.194278 0
69.144 0.133611 0
69.0456 0.135465 0
69.1638 0.134357 0
68.9933 0.0366183 0
69.0534 0.154226 0
68.9444 0.143253 0
69.0082 0.149566 0
68.8694 0.0535019 0
68.9457 0.154742 0
68.8877 0.162561 0
68.7346 0.106265 0
68.7503 0.106601 0
68.8282 0.141944 0
68.7389 0.171048 0
68.6575 0.0880931 0
68.6357 0.160782 0
68.6294 0.114285 0
68.4844 0.0130393 0
68.6338 0.184882 0
68.6034 0.200331 0
68.5295 0.190794 0
68.4675 0.161599 0
68.4984 0.123296 0
68.5296 0.220875 0
68.4449 0.168091 0
68.5009 0.242639 0
68.4432 0.101168 0
68.4782 0.224009 0
68.4243 0.116195 0
68.4672 0.252843 0
68.4731 0.297421 0
68.4597 0.197223 0
68.4782 0.281702 0
68.4492 0.159548 0
68.5229 0.33565 0
68.4481 0.11992 0
68.5086 0.338923 0
68.6033 0.410286 0
68.6576 0.317462 0
68.7136 0.367495 0
68.5732 0.337938 0
68.654 0.385904 0
68.6751 0.154943 0
68.7627 0.437243 0
68.8516 0.49006 0
69.0782 0.333239 0
68.8674 0.300792 0
68.8749 0.441237 0
68.93 0.463939 0
69.0211 0.131568 0
69.1676 0.472876 0
69.2024 0.508599 0
69.5401 0.319891 0
69.2804 0.279015 0
69.3077 0.458323 0
69.3564 0.449452 0
69.4852 0.125066 0
69.3748 0.482015 0
69.517 0.429523 0
69.7585 0.248708 0
69.616 0.32682 0
69.8461 0.182583 0
69.6272 0.334918 0
69.9495 0.0630372 0
69.6441 0.310113 0
69.7342 0.179892 0
69.9615 0.0518867 0
69.7812 0.0439603 0
69.8071 -0.00616698 0
69.8694 -0.00208141 0
69.7683 -0.0528127 0
69.7234 0.0386778 0
69.722 -0.0267809 0
69.8037 -0.0197127 0
69.6654 -0.173478 0
69.6499 -0.210384 0
69.7384 -0.117074 0
69.6573 -0.0887567 0
69.5756 -0.138286 0
69.6328 -0.299095 0
69.3617 -0.100746 0
69.5293 -0.316698 0
69.4641 -0.327481 0
69.469 -0.398625 0
69.242 -0.015587 0
69.3741 -0.370065 0
69.3799 -0.280126 0
69.2013 -0.178258 0
69.177 -0.159796 0
69.3727 -0.38656 0
69.3283 -0.367219 0
69.1024 -0.0528502 0
69.2913 -0.287873 0
69.343 -0.347008 0
69.3146 -0.306281 0
69.3935 0.0129104 0
69.2456 -0.173878 0
69.5131 -0.284836 0
69.5112 -0.0883767 0
69.3835 -0.0503716 0
69.5253 -0.228759 0
69.5698 -0.271712 0
69.3165 0.0129266 0
69.7321 -0.24799 0
69.8077 -0.193289 0
70.8806 0.0769166 0
70.0385 -0.209866 0
69.6898 -0.0467439 0
70.5901 -0.0200562 0
70.7093 -0.132922 0
70.2551 -0.144912 0
70.2572 -0.244933 0
71.0722 -0.0627751 0
70.822 -0.219219 0
70.6165 -0.343401 0
71.2457 -0.355198 0
72.1669 0.0512258 0
71.3765 -0.293762 0
71.3136 -0.435667 0
71.6195 -0.0774863 0
71.4924 -0.505086 0
72.3242 -0.22359 0
71.6282 -0.5681 0
73.1773 -0.161519 0
72.33 -0.516735 0
72.0989 -0.656828 0
72.9702 -0.110807 0
72.4571 -0.723426 0
73.0311 -0.826264 0
73.0012 -0.666775 0
73.3683 -0.383115 0
73.0224 -1.01275 0
73.7755 -0.428182 0
74.144 -0.0781346 0
73.1512 -0.765968 0
73.2516 -1.06689 0
73.4032 -1.17712 0
74.0574 -0.457778 0
73.7103 -1.11428 0
73.7273 -1.32252 0
74.1659 -0.13975 0
73.7938 -1.43639 0
73.732 -1.51322 0
73.9457 -1.10688 0
74.1202 -0.59486 0
74.0688 -0.78128 0
73.7467 -1.69287 0
74.0128 -0.0406681 0
73.7529 -1.85083 0
73.7036 -1.89374 0
73.7347 -1.93143 0
73.8812 -0.679903 0
73.814 -1.81596 0
73.5742 -2.10014 0
73.7754 -0.0483314 0
73.6329 -2.42333 0
73.6846 -2.45985 0
73.844 -1.58971 0
73.8611 -0.886659 0
73.5944 -2.61887 0
73.8393 -1.11563 0
73.5971 -0.17609 0
73.6264 -2.16787 0
73.5816 -2.82774 0
73.6557 -2.83621 0
73.6649 -0.696502 0
73.8733 -2.53302 0
73.6663 -2.90127 0
73.4862 -0.359226 0
73.7831 -3.14128 0
74.0246 -3.16851 0
74.0918 -2.05122 0
73.4299 -0.0265486 0
74.2933 -3.09908 0
74.0465 -1.23465 0
74.3373 -1.33503 0
74.3306 -2.81104 0
74.195 -2.26647 0
74.9181 -2.75298 0
73.7314 -0.465323 0
74.8095 -2.98317 0
74.8536 -1.99152 0
75.4021 -2.37461 0
73.5079 -0.149953 0
75.7791 -1.48357 0
75.6656 -1.1341 0
73.7272 0.0203063 0
76.0009 -2.11436 0
76.3093 -1.321 0
74.502 -0.0456689 0
73.8402 -0.152311 0
75.0848 -0.861281 0
76.4087 -0.683811 0
73.8008 0.0560053 0
76.2779 0.196017 0
76.5244 -0.745535 0
76.5457 -0.469517 0
73.967 0.452133 0
75.4748 0.56443 0
76.5268 0.554142 0
73.809 0.0866024 0
76.3525 1.01582 0
76.2339 1.13559 0
75.7487 2.42656 0
73.1087 0.111093 0
76.4889 2.07677 0
75.0523 1.34191 0
73.8447 0.540461 0
73.8416 1.22764 0
76.3544 2.44835 0
75.7649 2.96262 0
73.404 0.205606 0
75.6408 3.50106 0
67.6615 -0.00016177 0
67.6594 -0.00233924 0
67.6599 -0.0104585 0
67.6614 -0.00956921 0
67.6572 -0.00631538 0
67.6448 -0.0222864 0
67.652 -0.0301435 0
67.6556 -0.0267585 0
67.6526 -0.0131282 0
67.6458 -0.0479976 0
67.6581 -0.0448679 0
67.6682 -0.0222258 0
67.6447 -0.0719721 0
67.6721 -0.0800026 0
67.69 -0.0689471 0
67.7115 -0.0349388 0
67.7203 -0.0988796 0
67.7473 -0.0922807 0
67.7974 -0.0480554 0
67.7958 -0.122335 0
67.8413 -0.126938 0
67.8795 -0.166663 0
67.8906 -0.105664 0
67.9436 -0.121839 0
68.0454 -0.210506 0
68.0481 -0.158496 0
68.1299 -0.25031 0
68.1979 -0.213294 0
68.2404 -0.255019 0
68.1731 -0.123008 0
68.3768 -0.228078 0
68.4105 -0.281732 0
68.3603 -0.12337 0
68.5837 -0.302747 0
68.6392 -0.307307 0
68.6883 -0.231434 0
68.5654 -0.151556 0
68.7739 -0.239807 0
68.9006 -0.236725 0
68.7937 -0.136982 0
69.0371 -0.325088 0
69.1185 -0.14274 0
69.1248 -0.231881 0
69.025 -0.154978 0
69.1997 -0.26766 0
69.2402 -0.280341 0
69.3016 -0.120999 0
69.2637 -0.228952 0
69.2872 -0.25399 0
69.3157 -0.261875 0
69.3175 -0.114735 0
69.3444 -0.152749 0
69.3089 -0.201501 0
69.2902 -0.250071 0
69.267 -0.0999825 0
69.2594 -0.187006 0
69.2402 -0.217581 0
69.162 -0.101448 0
69.2393 -0.135538 0
69.164 -0.207203 0
69.1555 -0.179657 0
69.0738 -0.101584 0
69.0171 -0.0737231 0
68.998 -0.139546 0
69.2306 -0.0637939 0
68.9637 -0.158334 0
68.8355 -0.168543 0
68.8776 -0.14786 0
68.8977 -0.0948139 0
68.7793 -0.167994 0
68.7499 -0.150436 0
68.6007 -0.0946412 0
68.7764 -0.147565 0
68.6641 -0.161942 0
68.6226 -0.184329 0
68.6859 -0.0479286 0
68.6117 -0.141121 0
68.5443 -0.210126 0
68.5687 -0.118433 0
68.5118 -0.196219 0
68.4624 -0.243929 0
68.462 -0.185695 0
68.3793 -0.0761679 0
68.4301 -0.228724 0
68.4293 -0.248364 0
68.3375 -0.0675787 0
68.4104 -0.276852 0
68.3914 -0.213059 0
68.3851 -0.255154 0
68.3655 -0.170367 0
68.3895 -0.313498 0
68.4221 -0.379347 0
68.3645 -0.116818 0
68.3634 -0.262354 0
68.4396 -0.398893 0
68.4122 -0.327059 0
68.3613 -0.155312 0
68.4765 -0.408168 0
68.5399 -0.444187 0
68.5039 -0.127075 0
68.6045 -0.234577 0
68.6337 -0.430898 0
68.6426 -0.499441 0
68.5203 -0.278358 0
68.7418 -0.50831 0
68.8116 -0.534644 0
69.0109 -0.233971 0
68.823 -0.369739 0
68.9773 -0.543595 0
69.005 -0.470193 0
68.824 -0.147796 0
69.083 -0.505527 0
69.2224 -0.523528 0
69.3907 -0.230784 0
69.144 -0.457103 0
69.3374 -0.500299 0
69.4011 -0.396491 0
69.2176 -0.161857 0
69.3903 -0.451518 0
69.5304 -0.338052 0
69.6067 -0.148903 0
69.596 -0.252913 0
69.7455 -0.14114 0
69.663 -0.190861 0
69.7116 -0.176238 0
69.5759 -0.242399 0
69.5766 -0.0745799 0
69.8243 -0.0573444 0
69.6326 -0.0767692 0
69.5757 0.0644534 0
69.6658 0.0328594 0
69.6895 -0.117619 0
69.6198 0.0821508 0
69.5103 0.146184 0
69.7552 -0.0109618 0
69.4977 0.169161 0
69.4162 0.316854 0
69.3776 0.272436 0
69.3811 0.0835753 0
69.2719 0.275194 0
69.5246 0.0842636 0
69.5331 0.135956 0
69.3358 0.325471 0
69.2508 0.381759 0
69.2162 0.393776 0
69.4404 0.033734 0
69.2084 0.431127 0
69.1885 0.418709 0
69.0562 0.266455 0
68.9625 0.0957263 0
68.9856 0.0592622 0
69.1411 0.343855 0
69.0488 0.0856454 0
69.2271 0.338329 0
69.1439 0.318915 0
69.126 0.22309 0
68.9314 0.0298538 0
69.2395 0.232309 0
69.514 0.350643 0
69.2138 0.0291948 0
69.1143 0.0386118 0
69.3662 0.203288 0
69.7448 0.312906 0
68.9549 0.0253326 0
69.8237 0.354638 0
69.9393 0.295905 0
69.805 -0.0190144 0
70.3457 0.42432 0
70.4402 0.378457 0
70.86 0.328346 0
70.5083 0.0204915 0
70.2489 0.00690018 0
70.4623 0.37215 0
69.9679 -0.0481385 0
70.9241 0.57819 0
71.1246 0.510254 0
71.3534 0.531566 0
71.0874 0.0177429 0
71.7526 0.683099 0
71.841 0.768884 0
71.772 0.280964 0
72.4741 0.588807 0
72.0605 0.197851 0
72.0865 0.761776 0
71.7316 0.0572541 0
72.5543 1.01893 0
72.637 0.986996 0
72.139 0.159488 0
73.0037 1.00517 0
73.3325 1.23402 0
73.1681 1.19286 0
73.6937 0.229127 0
73.7086 1.4016 0
73.7771 1.52095 0
73.0497 0.697886 0
73.9006 1.15232 0
73.5639 0.409259 0
73.9994 1.71108 0
74.1101 0.150271 0
74.018 1.74135 0
74.0315 1.7167 0
73.8353 0.128499 0
73.9928 1.53931 0
74.0774 2.0035 0
74.0616 2.04134 0
74.2788 0.478933 0
74.0019 2.11579 0
74.0354 2.27721 0
74.0856 1.15536 0
74.0476 1.7125 0
74.2325 0.54912 0
74.0274 2.39599 0
74.2231 0.224062 0
73.9757 2.45844 0
73.9481 2.48762 0
74.305 0.139562 0
73.9545 2.18547 0
73.9371 2.72737 0
74.0183 2.72134 0
73.9856 0.574563 0
73.9583 2.63908 0
74.0727 2.92277 0
73.9951 1.96882 0
74.2032 2.10756 0
73.8726 0.544213 0
74.0157 2.64094 0
73.7764 0.256045 0
74.3331 2.99158 0
74.382 2.8411 0
73.9129 0.1611 0
74.2919 2.35045 0
74.5838 2.66644 0
74.8878 2.59929 0
73.5624 0.318327 0
75.0702 2.48375 0
75.1745 2.28583 0
73.8274 0.574488 0
75.2736 2.40271 0
74.8561 1.34068 0
73.8949 1.00467 0
73.7458 0.706901 0
75.5489 2.18504 0
75.4997 1.51643 0
76.002 1.58727 0
73.5122 0.0368553 0
75.6555 0.966173 0
76.2545 0.89252 0
73.5883 0.146751 0
75.3555 0.88553 0
76.4459 0.341755 0
75.3787 0.207113 0
73.9037 0.238504 0
76.4201 -0.0217151 0
76.4902 -0.365982 0
74.7739 0.670056 0
75.3917 -0.895501 0
74.3267 -0.958695 0
76.2393 -0.589459 0
73.7996 -0.0518777 0
76.4735 -1.27393 0
75.1358 3.94761 0
75.5651 3.41774 0
72.2895 0.662891 0
75.1075 3.89581 0
73.7215 3.53569 0
74.5408 4.37936 0
72.7548 0.241627 0
73.9848 4.50904 0
73.3063 4.44456 0
71.7952 0.322719 0
73.2544 4.78901 0
76.4643 -1.65874 0
73.7473 -0.00101171 0
76.3699 -1.95153 0
75.6487 -2.36581 0
75.159 -1.92328 0
73.8239 -0.0937543 0
75.8265 -2.80201 0
72.5852 4.30734 0
75.3912 -3.68079 0
74.0163 -0.480704 0
75.2358 -3.54 0
74.5637 -4.23084 0
70.8554 0.885405 0
74.3593 -4.12524 0
75.0641 -1.83583 0
74.8268 -3.63225 0
73.6057 -2.40675 0
73.096 -0.292821 0
74.2263 -3.68377 0
73.7519 -3.94707 0
72.1228 4.60911 0
73.7606 -4.01493 0
73.5309 -0.149921 0
73.1293 -4.22115 0
72.6682 -4.72237 0
72.7075 -0.17144 0
71.9779 -4.86052 0
72.402 -3.19533 0
71.0478 -0.168354 0
71.3564 -4.98084 0
71.3807 -2.27489 0
72.5548 -1.61076 0
71.7891 -4.08132 0
70.9778 -4.42239 0
72.8243 1.96725 0
70.0066 0.13001 0
72.4477 1.1643 0
71.5261 0.0232856 0
70.6661 -4.88436 0
71.9652 4.31398 0
69.7757 0.110293 0
71.5013 3.50882 0
70.0779 -4.90721 0
71.1538 -0.606081 0
69.4378 -3.34979 0
71.4308 5.07949 0
68.7555 0.685313 0
71.4162 5.00589 0
69.8757 4.23553 0
68.9122 0.125417 0
70.4618 4.41584 0
69.8457 -3.41138 0
70.6931 -0.19637 0
69.4675 -5.08787 0
69.5235 -4.91783 0
70.6622 4.79199 0
69.2982 4.73199 0
68.2351 -0.0235218 0
70.054 4.81398 0
68.4158 2.73758 0
68.4214 0.801604 0
68.7899 -5.11104 0
68.7449 -0.355103 0
69.0485 -4.99766 0
68.4156 5.07836 0
68.3194 -4.70378 0
67.9268 -0.254445 0
68.0096 -1.42852 0
67.5315 -4.59836 0
69.3083 -1.91006 0
67.362 -4.3856 0
67.4518 -0.0287992 0
66.7036 -4.27019 0
67.4988 1.07868 0
67.6827 0.081184 0
68.0839 4.19319 0
67.1776 0.00146356 0
67.9192 5.03357 0
67.781 4.7671 0
66.9993 0.0320711 0
67.1582 4.12766 0
66.9329 0.0435753 0
67.5279 -3.83031 0
67.4688 -0.084847 0
68.3813 3.43555 0
67.2596 -0.363002 0
66.9397 3.90379 0
66.6104 -4.29956 0
67.5441 -0.0589949 0
65.3786 -3.64843 0
67.4438 0.529081 0
65.806 -3.56309 0
66.9819 1.02795 0
67.7425 -0.156833 0
67.9571 -2.89533 0
67.7479 0.261983 0
65.3816 -3.40553 0
66.4066 3.51496 0
66.2293 -2.46185 0
67.6103 0.540559 0
65.497 -2.83109 0
66.6493 1.5211 0
65.1243 1.17025 0
65.9678 2.98109 0
66.8072 -0.34925 0
65.5075 -3.21744 0
67.4915 -0.384184 0
66.0569 4.19911 0
66.3849 -1.24167 0
67.7499 0.129386 0
65.2142 -2.89867 0
65.9282 3.79196 0
67.2561 -0.234892 0
65.5851 2.88529 0
65.5065 2.86956 0
67.4495 -0.27998 0
64.941 2.58084 0
64.6874 -2.62428 0
67.5576 0.323516 0
64.4158 -2.6462 0
65.6446 -1.14474 0
67.6122 0.215001 0
64.0728 -1.80893 0
64.9783 3.30284 0
67.1861 -0.136217 0
65.5458 1.92732 0
64.3546 -1.58138 0
67.325 0.127213 0
63.9253 -1.49441 0
64.1368 2.41462 0
67.3281 -0.133777 0
64.3299 2.27825 0
64.5007 1.8107 0
67.7325 -0.0345936 0
64.0238 1.99624 0
64.5645 -0.881574 0
67.1142 0.0877103 0
64.108 -0.815935 0
63.4253 -0.521788 0
66.1182 -0.590548 0
63.5844 -0.440211 0
65.794 0.663132 0
67.4935 -0.0188828 0
65.2921 1.46013 0
63.9373 1.59696 0
67.1626 -0.0194129 0
63.5255 1.04797 0
66.6586 -0.0966013 0
67.6813 0.0736295 0
63.4712 -0.10927 0
63.737 -0.00151415 0
67.5035 0.0232123 0
65.0702 0.186874 0
64.0047 0.370202 0
67.5926 0.0267597 0
66.4743 -3.42173 0
67.4118 0.6521 0
67.7195 -0.191751 0
67.3269 4.29245 0
67.9403 -4.73182 0
69.6774 -0.324684 0
68.1421 0.242947 0
69.8726 5.1378 0
67.4975 -0.17055 0
64.6698 3.17318 0
64.1097 -1.78258 0
67.7082 0.220836 0
67.2949 0.563104 0
66.4446 -1.91537 0
67.0929 -0.227449 0
67.5701 -0.280113 0
67.4649 -0.00599162 0
63.8325 1.38329 0
67.1642 0.0954782 0
66.8002 0.708884 0
66.9327 -0.488832 0
67.9489 -0.161322 0
72.6863 -0.393278 0
72.3305 -4.70263 0
73.5152 4.47741 0
72.5026 0.139684 0
66.51 0.971973 0
68.4051 4.86943 0
67.5745 -4.32736 0
67.346 -0.765254 0
65.8815 -0.948167 0
64.4185 -0.113715 0
65.9773 3.72845 0
66.6288 1.02033 0
66.5699 -0.983158 0
64.7334 -2.95201 0
76.2219 -2.41497 0
73.8372 -0.210327 0
73.8052 0.245836 0
76.4522 1.61897 0
67.0826 0.210084 0
67.6673 0.161311 0
67.6647 -0.421167 0
66.9758 0.213292 0
70.6544 0.158372 0
70.4512 1.85124 0
68.9684 -0.660349 0
71.6497 -0.568107 0
69.6711 2.50238 0
71.738 4.68415 0
71.0592 -4.96328 0
70.1934 -0.65081 0
73.2007 0.588117 0
73.8584 2.45698 0
72.9811 -1.09048 0
73.5115 -0.0085011 0
73.6868 0.239873 0
76.0904 1.3161 0
75.5378 -2.4789 0
73.6628 0.0133828 0
73.745 0.0445791 0
74.4184 2.90706 0
74.0563 -2.97073 0
73.5436 -0.449008 0
67.0772 -0.451632 0
66.8482 -0.14372 0
66.8293 0.495471 0
67.1102 0.24716 0
66.8247 0.467081 0
67.6153 -0.530203 0
67.7617 0.277633 0
66.9269 -0.289716 0
74.0257 0.212754 0
74.8505 0.188083 0
74.1512 -0.156471 0
73.6195 0.0127427 0
65.1204 -0.627627 0
67.4925 0.0816432 0
66.7398 -0.149606 0
67.4554 0.339 0
67.6144 -0.184191 0
66.9346 0.062371 0
73.8977 2.56726 0
74.1377 0.383832 0
73.669 -0.0584548 0
73.6436 -2.25071 0
69.2926 0.0214026 0
68.7974 -1.08539 0
69.6642 0.638376 0
68.3257 0.0929471 0
66.6241 2.21059 0
66.6687 4.60652 0
66.5204 -3.87314 0
66.8276 -1.5591 0
66.9863 -0.802685 0
66.2484 -1.25826 0
66.7888 2.56923 0
66.6852 1.06175 0
73.608 -0.566763 0
73.4945 -0.265805 0
73.5815 0.214885 0
74.2269 1.91455 0
68.2965 -2.94703 0
69.07 -2.73165 0
68.659 2.35636 0
69.3169 5.15884 0
67.5758 -1.91718 0
68.1827 -0.734091 0
68.1184 1.24388 0
67.2224 0.436843 0
74.1298 1.98018 0
74.2652 0.246843 0
74.0897 -0.0432787 0
73.6552 -1.39084 0
66.3324 0.613895 0
67.6511 -0.00188044 0
73.6269 -0.403269 0
73.7774 -1.8589 0
73.9784 1.15271 0
73.9732 0.161997 0
66.9463 -0.314529 0
66.8353 -0.553266 0
67.1491 0.543619 0
66.9361 0.0441941 0
67.6283 0.372417 0
67.1001 0.21543 0
67.361 -0.58284 0
67.6917 -0.287733 0
64.0598 1.11531 0
65.8839 0.969519 0
73.423 -1.26416 0
75.4519 -3.27987 0
76.0191 2.84769 0
73.2932 0.852201 0
65.7829 -1.3159 0
64.5319 -1.76051 0
73.0038 0.140325 0
72.8901 1.06693 0
70.2025 -0.00925728 0
71.6325 0.734536 0
72.8139 -0.769071 0
73.3618 -0.0811529 0
70.883 -0.299026 0
71.5757 0.0440313 0
73.9779 -0.489268 0
73.9489 -1.18676 0
74.2083 0.778741 0
74.314 0.027116 0
67.5609 -0.109812 0
67.014 -0.0216196 0
65.5088 0.30791 0
64.2077 0.559862 0
67.3149 0.112769 0
67.6166 0.0991709 0
66.5768 0.177809 0
66.3882 -0.45245 0
76.4604 0.012987 0
74.3408 -0.4212 0
75.1141 0.433552 0
76.3042 -1.35624 0
67.2692 0.069798 0
67.048 0.222801 0
67.6552 -0.180816 0
66.9369 -0.0187143 0
74.0057 -0.233226 0
73.7625 -0.578797 0
74.0878 0.523073 0
73.4547 0.0853217 0
69.343 -0.0280653 0
69.6826 0.22967 0
69.8355 -0.282906 0
69.7695 0.0326061 0
66.8955 -0.267166 0
67.3772 -0.679737 0
66.9809 0.541679 0
66.8355 0.500338 0
67.4015 1.14108 0
66.3202 1.092 0
66.6589 -0.986357 0
67.0659 -1.13322 0
74.0967 0.802191 0
74.5363 2.57418 0
74.3673 -2.90894 0
74.4102 -1.18142 0
66.6991 -0.538584 0
66.6759 -0.680734 0
66.8843 0.304715 0
66.2554 0.810588 0
69.3685 0.366629 0
68.9104 0.116027 0
69.0726 -0.0250012 0
69.3798 -0.286082 0
72.2304 1.87388 0
73.5759 3.83168 0
73.0437 -4.65765 0
72.8874 -1.31681 0
64.9531 -2.08104 0
66.3497 -1.7983 0
71.9719 -1.17543 0
72.4604 -0.3812 0
71.2543 0.176715 0
73.423 1.28959 0
64.8192 2.98569 0
65.7157 1.56455 0
72.5787 0.00454655 0
72.4036 -0.35497 0
72.4444 0.328969 0
72.3877 0.118935 0
73.7974 -0.080528 0
74.0149 -0.489172 0
74.3205 0.638262 0
73.746 0.0890638 0
70.6936 0.509323 0
69.0596 0.111573 0
70.0984 -0.143204 0
70.735 -1.2144 0
73.926 1.33533 0
73.9181 2.44863 0
73.6664 -2.60124 0
73.8269 -1.54473 0
69.9688 -1.66597 0
70.783 -0.583162 0
70.1614 1.06225 0
72.1773 3.03471 0
69.167 0.320935 0
69.1379 0.0575875 0
69.0619 -0.0464752 0
69.457 -0.356524 0
70.148 -0.00669236 0
71.0486 0.0469144 0
70.8108 0.0238812 0
69.7027 0.105753 0
67.6047 0.106189 0
67.4786 0.302187 0
67.7078 -0.212142 0
68.4198 -0.121707 0
69.2548 1.13993 0
67.7412 0.537689 0
67.418 -1.06828 0
66.8084 -1.32106 0
73.7484 0.254266 0
73.6478 0.122874 0
73.7411 -0.138052 0
74.0574 -0.668187 0
68.0562 1.76896 0
68.2374 0.940381 0
67.1797 -0.179098 0
67.0582 -0.0755505 0
66.973 0.0622218 0
67.4663 0.164403 0
65.5768 -0.575397 0
66.4502 -0.787654 0
76.2652 -1.02884 0
74.5785 -0.614255 0
74.6842 1.61067 0
76.5824 0.869941 0
67.0752 0.134744 0
67.6495 0.215082 0
67.6852 -0.220096 0
67.1561 -0.21444 0
66.9823 -0.0340081 0
66.9381 0.0526492 0
66.8965 -0.0533199 0
66.89 0.00419996 0
64.8813 -0.164628 0
63.4529 0.1455 0
72.2485 1.33706 0
74.5386 1.17105 0
73.8268 -0.985118 0
74.2224 -2.37856 0
66.2984 1.21221 0
66.0873 0.712036 0
67.7493 0.0186844 0
67.1178 0.013659 0
68.9656 3.99854 0
66.9755 2.13274 0
68.332 -2.09084 0
67.9933 -4.93562 0
66.5058 0.46486 0
67.2939 -0.154652 0
74.1627 1.03523 0
74.053 2.16068 0
73.8439 -1.60516 0
74.037 -0.413121 0
69.0884 -0.0190503 0
69.569 0.0133656 0
69.3613 0.00997676 0
69.1257 0.251187 0
75.3986 -2.30506 0
75.1693 -0.522301 0
74.563 1.1965 0
75.7 1.86014 0
66.782 0.0563413 0
65.7894 -1.05394 0
66.7873 0.658277 0
66.7476 0.902461 0
66.853 -0.915777 0
66.9299 -0.170611 0
67.6035 -0.0588886 0
66.909 0.0936837 0