# vtk DataFile Version 3.0
Unstructured Grid for Triangles
ASCII
DATASET UNSTRUCTURED_GRID
POINTS 29612 DOUBLE
-0.000272397 1.23686e-05 0
-0.000295789 9.5838e-06 0
-0.000277865 -3.1235e-06 0
0.002024 0.0005 0
0.00203975 0.00049875 0
0.00205 0.0005 0
0.00203975 -0.00049875 0
0.002024 -0.0005 0
0.00205 -0.0005 0
0.0020295 0.0004975 0
0.0020295 -0.0004975 0
0.00201925 0.00049625 0
0.00201925 -0.00049625 0
-0.000529747 -0.000479887 0
-0.00055 -0.0005 0
-0.000524 -0.0005 0
-0.000505983 -0.000484325 0
-0.000498 -0.0005 0
-0.000472 -0.0005 0
-0.000483864 -0.000487761 0
-0.000446 -0.0005 0
-0.000459 -0.000484239 0
-0.000429453 -0.000424878 0
-0.000447486 -0.000420717 0
-0.000441829 -0.000436609 0
-0.000512578 -0.000462101 0
-0.000493078 -0.000453594 0
-0.00050706 -0.000439006 0
-0.000419243 -0.000477545 0
-0.000440307 -0.000471837 0
-0.00043691 -0.000486724 0
-0.000516129 -0.000420948 0
-0.000495355 -0.000415432 0
-0.000511646 -0.00040128 0
-0.000394697 -0.000481197 0
-0.000406302 -0.000455143 0
-0.000537257 -0.000388197 0
-0.000531099 -0.000407297 0
-0.000523982 -0.000388328 0
-0.000370063 -0.000472956 0
-0.000368 -0.0005 0
-0.00035308 -0.000485302 0
-0.0005072 -0.00037867 0
-0.000485506 -0.000383975 0
-0.000490949 -0.000359622 0
-0.000337127 -0.000484331 0
-0.000316 -0.0005 0
-0.000326495 -0.00047415 0
-0.00055 -0.00035 0
-0.000531201 -0.000370361 0
-0.000528367 -0.000346817 0
-0.000363898 -0.000448809 0
-0.000383315 -0.000460336 0
-3.26269e-05 -0.000415503 0
-5.99662e-05 -0.000409556 0
-5.46944e-05 -0.000429488 0
-0.000529747 0.000479887 0
-0.00055 0.0005 0
-0.00055 0.000475 0
-0.00055 0.00045 0
-0.000534834 0.000429171 0
-0.000526943 0.000442611 0
-0.000534026 0.000460176 0
-0.000531099 0.000407297 0
-0.000511672 0.000401178 0
-0.000516129 0.000420948 0
-0.000524 0.0005 0
-0.000505983 0.000484325 0
-0.000531201 0.000370361 0
-0.0005072 0.00037867 0
-0.000523982 0.000388328 0
-0.00048341 0.000469132 0
-0.000483679 0.000487539 0
-0.000528367 0.000346817 0
-0.00055 0.000325 0
-0.000525657 0.000328474 0
-0.000498 0.0005 0
-0.000530382 0.0003125 0
-0.000419243 0.000477545 0
-0.000440015 0.00047335 0
-0.000425917 0.000463678 0
-0.000435138 0.000262661 0
-0.000414982 0.000274462 0
-0.000435654 0.000285217 0
-0.000459 0.000484239 0
-0.000436852 0.000487027 0
-0.000446 0.0005 0
-0.000533308 0.000292503 0
-0.00055 0.000275 0
-0.000523377 0.000276953 0
-0.000425282 0.000446352 0
-0.000409368 0.000435728 0
-0.000406302 0.000455143 0
0.002009 0.000495 0
0.001998 0.0005 0
0.00199875 0.00049375 0
0.0019885 0.0004925 0
0.001972 0.0005 0
0.00197825 0.00049125 0
0.001968 0.00049 0
0.00195775 0.00048875 0
0.001946 0.0005 0
0.0019475 0.0004875 0
0.00193725 0.00048625 0
0.00192 0.0005 0
0.001927 0.000485 0
0.00191675 0.00048375 0
0.0019065 0.0004825 0
0.001894 0.0005 0
0.00189625 0.00048125 0
0.001886 0.00048 0
0.001868 0.0005 0
0.00187575 0.00047875 0
0.0018655 0.0004775 0
0.00185515 0.00048575 0
0.001842 0.0005 0
0.001845 0.000475 0
0.00185525 0.00047625 0
0.00182564 0.0004829 0
0.001816 0.0005 0
0.0018245 0.0004725 0
0.00183475 0.00047375 0
0.00181425 0.00047125 0
0.00180295 0.000482657 0
0.00179 0.0005 0
0.00179375 0.00046875 0
0.001804 0.00047 0
0.00178168 0.000480619 0
0.001764 0.0005 0
0.00177325 0.00046625 0
0.0017835 0.0004675 0
0.00176428 0.000476631 0
0.001763 0.000465 0
0.001738 0.0005 0
0.001751 0.000484164 0
0.00175275 0.00046375 0
0.00174025 0.000475632 0
0.001712 0.0005 0
0.00172615 0.000478449 0
0.001722 0.00046 0
0.00173225 0.00046125 0
0.0017015 0.0004575 0
0.00171243 0.00047381 0
0.00169554 0.000479999 0
0.001686 0.0005 0
0.00167507 0.000479751 0
0.00168498 0.000464861 0
0.00166 0.0005 0
0.0016558 0.000471459 0
0.00167135 0.000462887 0
0.001681 0.000455 0
0.0016605 0.0004525 0
0.00167075 0.00045375 0
0.00164059 0.000461599 0
0.0016394 0.000479551 0
0.00162881 0.00046615 0
0.00162975 0.00044875 0
0.00165025 0.00045125 0
0.00164 0.00045 0
0.00161754 0.000458641 0
0.00161722 0.000478101 0
0.00159956 0.000458294 0
0.00160925 0.00044625 0
0.0016195 0.0004475 0
0.00157667 0.000460322 0
0.00158875 0.00044375 0
0.00159194 0.000480155 0
0.001599 0.000445 0
0.0015785 0.0004425 0
0.00155808 0.000456757 0
0.00155647 0.000476701 0
0.00154059 0.000466642 0
0.00153756 0.000450083 0
0.00154839 0.000450446 0
0.00156825 0.00044125 0
0.00151954 0.000480508 0
0.00154052 0.00048477 0
0.00153 0.0005 0
0.00154775 0.00043875 0
0.00152142 0.000456625 0
0.00152821 0.000445753 0
0.0015375 0.0004375 0
0.001504 0.0005 0
0.00149644 0.000485168 0
0.00151787 0.000443178 0
0.00152725 0.00043625 0
0.00150675 0.00043375 0
0.001517 0.000435 0
0.00148119 0.000450887 0
0.00148072 0.000475756 0
0.00146584 0.000463516 0
0.00150008 0.00046396 0
0.00149351 0.00044543 0
0.0015061 0.000446252 0
0.001476 0.00043 0
0.00148625 0.00043125 0
0.00146492 0.000482975 0
0.00144888 0.000473562 0
0.00146676 0.000444259 0
0.00145255 0.000453656 0
0.00145652 0.000438669 0
0.00141401 0.000479821 0
0.001426 0.0005 0
0.0014 0.0005 0
0.00144374 0.000438862 0
0.0014555 0.0004275 0
0.001435 0.000425 0
0.00144525 0.00042625 0
0.00142746 0.000438121 0
0.00141288 0.000443191 0
0.00141707 0.000432778 0
0.0013921 0.000438992 0
0.00140355 0.00045932 0
0.00138302 0.00045922 0
0.00142912 0.000458869 0
0.00140592 0.000430037 0
0.0014145 0.0004225 0
0.00136458 0.00045869 0
0.00137106 0.00044063 0
0.001394 0.00042 0
0.00138259 0.000428915 0
0.00137484 0.000477094 0
0.00139166 0.000478902 0
0.0013586 0.000478984 0
0.00133449 0.000478649 0
0.00134717 0.000461848 0
0.00137256 0.000425134 0
0.00135323 0.000424541 0
0.00136325 0.00041625 0
0.00136122 0.00042876 0
0.00131206 0.000447284 0
0.00133168 0.000456738 0
0.00131773 0.000465243 0
0.00134756 0.000440343 0
0.00132747 0.000436463 0
0.00133483 0.000426786 0
0.00131081 0.00041867 0
0.00132382 0.000422815 0
0.00131507 0.00043122 0
0.00131059 0.000480123 0
0.0013325 0.0004125 0
0.0012915 0.0004075 0
0.0012982 0.000418199 0
0.00128915 0.000426216 0
0.00126366 0.000447574 0
0.00127331 0.000430908 0
0.00128781 0.000444872 0
0.00125336 0.000428376 0
0.00130218 0.000431077 0
0.00127894 0.000416344 0
0.00124774 0.000469608 0
0.00127668 0.000464148 0
0.00126591 0.00048331 0
0.00126722 0.000418415 0
0.00125768 0.000411931 0
0.00124326 0.000413546 0
0.0012505 0.0004025 0
0.00122408 0.000450118 0
0.00120276 0.000447432 0
0.0012139 0.000432235 0
0.00124336 0.000444132 0
0.00123056 0.000427595 0
0.00122977 0.000409049 0
0.0012185 0.000469217 0
0.00122676 0.000485947 0
0.00120525 0.000486094 0
0.00121479 0.000413153 0
0.00119547 0.000424221 0
0.00120249 0.000407448 0
0.00119925 0.00039625 0
0.00119346 0.000406114 0
0.00117479 0.000447279 0
0.00114726 0.000445259 0
0.0011571 0.000427814 0
0.00119443 0.000466611 0
0.00117447 0.000421596 0
0.00118421 0.00040752 0
0.00117409 0.000404437 0
0.00116775 0.000470073 0
0.001179 0.0004855 0
0.00115473 0.000484802 0
0.0011685 0.0003925 0
0.00117875 0.00039375 0
0.00115454 0.000400551 0
0.001148 0.00039 0
0.00115825 0.00039125 0
0.00111703 0.000423398 0
0.00113786 0.000426731 0
0.00112589 0.000443871 0
0.00113234 0.000406671 0
0.00114754 0.000413371 0
0.001106 0.000442326 0
0.00109703 0.000424261 0
0.0011275 0.0003875 0
0.00113775 0.00038875 0
0.00110211 0.000480875 0
0.00108244 0.000471951 0
0.00109312 0.000458413 0
0.00111755 0.000399116 0
0.0010944 0.000392972 0
0.00110415 0.000405876 0
0.00108839 0.000407536 0
0.00106472 0.000476905 0
0.00107274 0.000457868 0
0.00108011 0.000392415 0
0.00106885 0.000404365 0
0.00106625 0.000388708 0
0.00105286 0.000419254 0
0.00105055 0.000395469 0
0.00104215 0.000439764 0
0.00106346 0.000440629 0
0.00100945 0.000451249 0
0.00102825 0.00045614 0
0.00101189 0.000468452 0
0.00107625 0.00038125 0
0.00105575 0.00037875 0
0.001066 0.00038 0
0.00103352 0.000476905 0
0.00101803 0.00048465 0
0.00103685 0.000389398 0
0.0010245 0.00038825 0
0.00103525 0.00037625 0
0.00101092 0.000399779 0
0.00101267 0.000382619 0
0.00101382 0.00042025 0
0.00103187 0.000405286 0
0.00103359 0.000424605 0
0.000987383 0.00045447 0
0.000999411 0.000435161 0
0.0009744 0.000433145 0
0.0010045 0.0003725 0
0.00101475 0.00037375 0
0.000970845 0.000465215 0
0.000952614 0.000467664 0
0.000961768 0.000449944 0
0.00099729 0.000387704 0
0.000978901 0.00039598 0
0.000985823 0.000381492 0
0.000962289 0.000393709 0
0.000974259 0.000381279 0
0.00097375 0.00036875 0
0.000963045 0.000376631 0
0.000958 0.0005 0
0.000932 0.0005 0
0.000947542 0.00048457 0
0.000949675 0.000385245 0
0.000936214 0.000389472 0
0.000940006 0.000374906 0
0.000966411 0.000412573 0
0.000944241 0.000407079 0
0.000903569 0.000424993 0
0.000921701 0.000402409 0
0.000927439 0.000427744 0
0.000889795 0.000409067 0
0.000903071 0.00040248 0
0.000925447 0.000377721 0
0.00093275 0.00036375 0
0.000907708 0.000387127 0
0.000911303 0.000370839 0
0.000911933 0.000455145 0
0.000930678 0.000473279 0
0.000911886 0.000482603 0
0.000887724 0.000388076 0
0.000899595 0.000375116 0
0.000902 0.00036 0
0.000889241 0.00036954 0
0.000836977 0.000459472 0
0.000836223 0.000483578 0
0.000820467 0.000474142 0
0.000871227 0.000403557 0
0.000861 0.000355 0
0.000868368 0.000365714 0
0.00085484 0.00036588 0
0.000847735 0.000402845 0
0.000823121 0.000421599 0
0.000826582 0.000398147 0
0.000846943 0.00042454 0
0.000838832 0.000378613 0
0.000835569 0.000363808 0
0.000844098 0.00036291 0
0.00085075 0.00035375 0
0.000851465 0.000477164 0
0.00083025 0.00035125 0
0.000822824 0.000368659 0
0.00081446 0.000357362 0
0.000805884 0.000371794 0
0.000753471 0.000477524 0
0.000738313 0.000473927 0
0.000739102 0.000461526 0
0.00079826 0.000358588 0
0.000788607 0.000376287 0
0.000781733 0.000357987 0
0.000816783 0.000384471 0
0.000807975 0.000404095 0
0.000752138 0.000404775 0
0.000767682 0.000417043 0
0.000749617 0.000421803 0
0.000752903 0.000384008 0
0.000738293 0.000393136 0
0.000772614 0.000394048 0
0.00076863 0.000371878 0
0.000765995 0.000354121 0
0.000779 0.000345 0
0.00071811 0.000453059 0
0.000738069 0.000437967 0
0.000752085 0.000365972 0
0.000728123 0.000374583 0
0.000741845 0.000354664 0
[...]
CELL_DATA 58684
VECTORS velocity DOUBLE
65.2799 0.323505 0
67.237 0.000342206 0
67.2262 -0.00108678 0
67.265 -0.00815654 0
67.2594 0.0122786 0
67.2792 -0.00117601 0
67.2761 0.000889556 0
67.7267 -0.0300169 0
67.6883 -0.106722 0
67.7151 -0.0247923 0
67.767 -0.0317306 0
67.7602 -0.889357 0
67.6841 -0.415748 0
67.8396 -0.259907 0
67.6607 -0.729585 0
67.981 -0.290246 0
67.7119 -0.634091 0
68.0341 -0.157572 0
67.6737 -1.06658 0
68.2728 -0.121667 0
67.7642 -0.597448 0
68.0698 -0.400208 0
72.0314 -1.2245 0
67.7459 0.0839559 0
67.6846 0.34641 0
67.7484 0.176086 0
67.6975 0.700863 0
67.6865 0.107387 0
67.6977 0.858918 0
67.7423 0.174054 0
67.7571 0.698108 0
67.6857 0.109676 0
67.5754 0.709002 0
67.9356 0.333967 0
67.7015 1.97382 0
67.8001 0.152331 0
67.8398 0.702435 0
67.9553 0.623102 0
67.3209 0.0267626 0
67.3568 0.0101538 0
67.4253 -0.0118811 0
67.4461 0.0203945 0
67.5583 0.0210911 0
67.6606 -0.00284477 0
67.7131 0.00682864 0
67.776 0.0583752 0
67.8924 0.0414703 0
67.9982 0.018866 0
68.0491 0.0585587 0
68.2079 0.052125 0
68.3258 0.037452 0
68.4063 0.0560399 0
68.481 0.0976349 0
68.6287 0.0715488 0
68.7484 0.0642895 0
68.8145 0.0866422 0
68.9737 0.0733546 0
69.0953 0.0756673 0
69.1768 0.0795482 0
69.2723 0.0901734 0
69.3875 0.0576628 0
69.4234 0.0933438 0
69.6194 0.0910663 0
69.7522 0.0515972 0
69.7455 0.131789 0
69.8008 0.144075 0
69.8801 0.141781 0
70.0215 0.0552364 0
70.0376 0.141358 0
70.1215 0.144712 0
70.2759 0.0611114 0
70.2947 0.125187 0
70.372 0.128678 0
70.4789 0.106233 0
70.6413 0.0561329 0
70.6964 0.0740987 0
70.7722 0.0430078 0
70.9851 0.061688 0
70.984 0.0668464 0
71.2677 0.0697088 0
71.0544 0.0565931 0
71.3606 0.0388464 0
71.4778 -0.0121711 0
71.3611 0.016621 0
71.6271 -0.0318726 0
71.5512 -0.0348057 0
71.4704 0.00221218 0
71.5544 -0.0469296 0
71.6036 -0.10071 0
71.5341 -0.0774964 0
71.6035 -0.0804423 0
71.5644 -0.100366 0
71.3833 -0.133954 0
71.4782 -0.0763335 0
71.4174 -0.156302 0
70.9646 -0.145556 0
71.0588 -0.0722969 0
71.1621 -0.186396 0
70.8612 -0.119558 0
70.4962 -0.0302158 0
70.0765 -0.0818339 0
70.6162 -0.157171 0
69.7979 0.00330882 0
70.1518 -0.126209 0
69.7325 -0.0980749 0
69.9348 -0.127369 0
69.3204 0.0302905 0
69.7194 -0.137591 0
69.5149 -0.145223 0
68.8973 -0.066791 0
68.9996 -0.0505817 0
69.235 -0.0699484 0
68.9473 -0.129325 0
68.7185 -0.0583695 0
68.6537 -0.121345 0
68.6445 -0.0861665 0
68.4541 -0.0370363 0
68.6152 -0.172215 0
68.5244 -0.185745 0
68.3761 -0.223626 0
68.3487 -0.210306 0
68.4445 -0.11698 0
68.3671 -0.274603 0
68.3219 -0.243728 0
68.2762 -0.302509 0
68.3571 -0.131257 0
68.2904 -0.314048 0
68.3517 -0.175052 0
68.2778 -0.338171 0
68.2737 -0.425599 0
68.3476 -0.293158 0
68.2909 -0.413086 0
68.3213 -0.225584 0
68.2935 -0.509881 0
68.3575 -0.172366 0
68.2803 -0.500687 0
68.3171 -0.603008 0
68.3723 -0.44864 0
68.3716 -0.507035 0
68.3453 -0.509824 0
68.3401 -0.567474 0
68.3674 -0.219762 0
68.3696 -0.619363 0
68.3778 -0.677094 0
68.3566 -0.436344 0
68.3531 -0.365139 0
68.3774 -0.579318 0
68.3847 -0.653215 0
68.3668 -0.151435 0
68.3855 -0.684639 0
68.3615 -0.738317 0
68.2489 -0.472822 0
68.3517 -0.382934 0
68.3261 -0.652425 0
68.3174 -0.717322 0
68.288 -0.155617 0
68.3048 -0.801049 0
68.2421 -0.822878 0
68.1025 -0.562707 0
68.1887 -0.681925 0
67.9679 -0.543368 0
68.1422 -0.837386 0
67.8051 -0.233638 0
68.0938 -0.802866 0
67.939 -0.735862 0
67.6679 -0.211238 0
67.7907 -0.748912 0
67.674 -0.646566 0
67.5809 -0.422207 0
67.3157 -0.213294 0
67.8454 -0.788592 0
67.818 -0.813668 0
67.3019 -0.118769 0
67.6351 -0.658758 0
67.5637 -0.606026 0
67.4921 -0.457073 0
67.3714 -0.221631 0
67.3745 -0.243251 0
67.6437 -0.659941 0
67.4351 -0.122226 0
67.5839 -0.50791 0
67.5738 -0.401752 0
67.615 -0.481007 0
67.495 0.000831267 0
67.6856 -0.381853 0
67.5447 -0.305204 0
67.686 -0.220994 0
67.7286 -0.280401 0
67.7353 -0.421777 0
67.7568 -0.39561 0
67.6971 -0.0751311 0
67.7574 -0.384807 0
67.7619 -0.449751 0
67.7632 -0.428711 0
67.4779 -0.104833 0
67.7447 -0.343315 0
67.6806 -0.541244 0
67.4411 -0.380131 0
67.5324 -0.338569 0
67.5303 -0.568696 0
67.6118 -0.571277 0
67.5696 -0.101113 0
67.3794 -0.633857 0
67.302 -0.619963 0
66.8518 -0.122975 0
67.0707 -0.656247 0
67.3333 -0.478089 0
66.8517 -0.431586 0
66.8792 -0.559288 0
66.9729 -0.59322 0
66.9891 -0.742826 0
66.8758 -0.282862 0
66.8629 -0.713055 0
66.892 -0.803599 0
67.0094 -0.823708 0
67.4008 0.0215704 0
67 -0.697605 0
67.0303 -0.865445 0
67.06 -0.227545 0
67.1254 -0.915533 0
67.6401 -0.531272 0
67.2176 -0.960881 0
68.4551 -0.28927 0
67.7937 -0.82655 0
67.5905 -0.964286 0
68.1807 -0.201738 0
68.0052 -1.00457 0
68.6574 -1.00422 0
68.4026 -0.927678 0
68.7621 -0.532793 0
68.6924 -1.16062 0
69.3383 -0.517596 0
70.1084 -0.0901672 0
68.7172 -0.92267 0
69.0425 -1.1419 0
69.2517 -1.25439 0
70.0151 -0.473256 0
69.7106 -1.12815 0
69.9796 -1.2281 0
70.472 -0.175474 0
70.285 -1.26602 0
70.0552 -1.34628 0
70.0884 -1.08466 0
70.6306 -0.586865 0
70.7255 -0.714058 0
70.34 -1.43581 0
71.3782 0.00571828 0
70.5038 -1.54453 0
70.7115 -1.51282 0
70.6394 -1.57891 0
71.6879 -0.530683 0
71.0628 -1.46139 0
71.2452 -1.56728 0
72.035 0.00164873 0
71.3218 -1.81061 0
71.7717 -1.80317 0
71.5557 -1.20951 0
71.8971 -0.651301 0
71.587 -1.90141 0
72.0214 -0.799208 0
72.6772 -0.112804 0
71.8358 -1.57375 0
71.9114 -1.98169 0
72.1537 -1.9651 0
72.7487 -0.42232 0
72.633 -1.74436 0
72.2804 -1.99533 0
73.0277 -0.216769 0
72.5026 -2.16869 0
72.8268 -2.18139 0
73.1257 -1.34543 0
73.3529 -0.00333046 0
73.1889 -2.15283 0
73.5428 -0.756871 0
73.7681 -0.824285 0
73.3075 -1.94984 0
73.3237 -1.54799 0
73.8474 -1.93208 0
73.6342 -0.256663 0
73.7261 -2.11083 0
74.0939 -1.38801 0
74.3953 -1.74262 0
73.452 -0.0687825 0
74.8755 -1.09876 0
74.8578 -0.825277 0
73.4506 0.0341963 0
75.0401 -1.61457 0
75.4299 -0.981758 0
74.1789 0.0620377 0
73.7149 -0.0410256 0
74.554 -0.549793 0
75.6095 -0.503844 0
73.5507 0.0732104 0
75.6682 0.155801 0
75.746 -0.633459 0
75.7775 -0.413733 0
73.4434 0.482699 0
75.0103 0.508051 0
75.9953 0.44948 0
73.3343 0.0781099 0
75.8669 0.834438 0
75.7532 1.00849 0
75.5253 2.2835 0
72.4299 0.167466 0
76.2362 1.84783 0
74.7217 1.27587 0
73.2465 0.597895 0
73.3538 1.41409 0
76.1737 2.21552 0
75.7782 2.89529 0
72.7278 0.287802 0
75.7298 3.38138 0
67.3209 -0.0266249 0
67.3562 -0.0103843 0
67.4305 0.0145045 0
67.4524 -0.0257191 0
67.5594 -0.0203478 0
67.6615 0.00261756 0
67.712 -0.01422 0
67.7741 -0.0582366 0
67.8903 -0.0409811 0
67.9981 -0.0145557 0
68.0468 -0.0503619 0
68.2055 -0.0518596 0
68.3186 -0.042255 0
68.4003 -0.0598633 0
68.4743 -0.0909857 0
68.6232 -0.07091 0
68.74 -0.0688385 0
68.8056 -0.0851871 0
68.9628 -0.0731534 0
69.0839 -0.0743789 0
69.1639 -0.0784135 0
69.3533 -0.0990911 0
69.2586 -0.0915917 0
69.4804 -0.069812 0
69.6616 -0.140551 0
69.6042 -0.090972 0
69.7859 -0.143463 0
69.8677 -0.142834 0
69.9706 -0.138046 0
69.8677 -0.045717 0
70.1112 -0.14389 0
70.2303 -0.127639 0
70.1455 -0.0512747 0
70.4729 -0.111717 0
70.5175 -0.11356 0
70.6052 -0.103306 0
70.4234 -0.0588482 0
70.6906 -0.0761483 0
70.8915 -0.111167 0
70.7656 -0.0435771 0
71.1318 -0.052002 0
71.217 -0.00955334 0
71.262 -0.0704413 0
71.1281 -0.013672 0
71.3563 -0.0158087 0
71.4663 -0.00179999 0
71.6235 0.030523 0
71.5321 0.0217217 0
71.5771 0.0147149 0
71.598 0.071749 0
71.5072 0.0664922 0
71.5987 0.100294 0
71.5262 0.0762013 0
71.4218 0.114933 0
71.239 0.0819562 0
71.2684 0.133424 0
71.1924 0.14178 0
70.6713 0.0138697 0
71.0601 0.0748045 0
70.8513 0.117034 0
70.7761 0.150352 0
70.3125 0.0732286 0
70.1055 0.0495742 0
70.0624 0.0829206 0
70.9476 -0.0102185 0
69.9236 0.122902 0
69.494 0.150781 0
69.6181 0.0975357 0
69.6767 0.0499937 0
69.2736 0.138062 0
69.1675 0.148188 0
68.7002 0.0590447 0
69.2202 0.0684245 0
68.8398 0.132069 0
68.7026 0.139114 0
68.9542 0.0150696 0
68.7084 0.100119 0
68.5028 0.177285 0
68.6241 0.082239 0
68.4465 0.194782 0
68.346 0.275363 0
68.3724 0.17391 0
68.3627 0.101734 0
68.3191 0.270106 0
68.2721 0.286006 0
68.3633 0.0871754 0
68.2584 0.355293 0
68.324 0.254736 0
68.269 0.362506 0
68.3091 0.228109 0
68.2468 0.425221 0
68.2609 0.547393 0
68.3291 0.161902 0
68.294 0.371553 0
68.2758 0.582048 0
68.2696 0.450088 0
68.291 0.218434 0
68.2758 0.577577 0
68.2699 0.616995 0
68.3108 0.165728 0
68.3393 0.299494 0
68.3116 0.565827 0
68.3033 0.679457 0
68.3016 0.371439 0
68.3288 0.677277 0
68.3229 0.690301 0
68.3119 0.268458 0
68.3441 0.472058 0
68.328 0.740052 0
68.2967 0.630913 0
68.3208 0.219447 0
68.2966 0.703177 0
68.2553 0.745285 0
68.2126 0.315488 0
68.2955 0.646326 0
68.2298 0.816347 0
68.1886 0.654635 0
68.2809 0.214613 0
68.177 0.781024 0
68.0309 0.849808 0
68.0933 0.259979 0
67.9505 0.706139 0
67.8816 0.340145 0
67.84 0.654908 0
67.9619 0.401215 0
67.913 0.849361 0
67.7622 0.764163 0
67.5887 0.203325 0
67.7116 0.724489 0
67.6312 0.730958 0
67.2316 0.158453 0
67.7138 0.627977 0
67.4481 0.556313 0
67.5527 0.648114 0
67.317 0.0970598 0
67.4563 0.535059 0
67.5064 0.55704 0
67.365 0.394305 0
67.2036 0.101819 0
67.4115 0.342395 0
67.1977 0.171623 0
67.3878 0.487821 0
67.4529 0.437195 0
67.5612 0.41487 0
67.5492 0.38148 0
67.1699 0.0151381 0
67.6329 0.403976 0
67.6327 0.375327 0
67.6281 0.322391 0
67.6115 0.140078 0
67.6292 0.186997 0
67.6338 0.361334 0
67.4575 0.0969396 0
67.6288 0.444845 0
67.596 0.415769 0
67.5662 0.38432 0
67.6296 0.0994909 0
67.4578 0.48058 0
67.3793 0.569096 0
67.3413 0.199809 0
67.5193 0.231678 0
67.2844 0.447056 0
67.1196 0.638411 0
67.5941 0.13135 0
67.0639 0.647359 0
66.9431 0.668659 0
66.9363 0.128521 0
66.8215 0.740578 0
66.787 0.73664 0
66.7003 0.636662 0
66.6975 0.273057 0
66.7326 0.323991 0
66.6998 0.706163 0
66.8534 0.224643 0
66.7749 0.836464 0
66.8164 0.799801 0
66.871 0.774003 0
66.6902 0.114248 0
67.1591 0.882929 0
67.2234 0.93505 0
67.0659 0.506918 0
67.7028 0.767992 0
67.2353 0.408902 0
67.4155 0.914144 0
67.02 0.24039 0
67.8745 1.06027 0
67.9697 1.01527 0
67.2351 0.245492 0
68.3256 1.04113 0
68.7834 1.15086 0
68.5532 1.15541 0
68.9105 0.279213 0
69.3096 1.2194 0
69.4081 1.34109 0
68.3108 0.761637 0
69.4771 1.09525 0
68.7596 0.47571 0
69.8366 1.45331 0
69.6174 0.171195 0
69.9503 1.45752 0
70.0215 1.44865 0
69.1009 0.14487 0
69.9779 1.36192 0
70.4878 1.64047 0
70.6365 1.67932 0
70.5479 0.471926 0
70.754 1.72053 0
70.8645 1.87319 0
70.0011 1.01888 0
71.2256 1.38227 0
70.9642 0.494132 0
71.1211 1.95994 0
71.2334 0.17128 0
71.34 1.99418 0
71.4906 2.02115 0
70.8223 0.140224 0
71.5384 1.82316 0
71.9301 2.2134 0
72.2278 2.20751 0
71.7126 0.443223 0
72.0816 2.13657 0
72.4948 2.42505 0
71.7614 1.59865 0
72.9509 1.68994 0
72.1352 0.390786 0
72.3431 2.16987 0
72.5248 0.160816 0
72.9873 2.50663 0
73.1192 2.35437 0
72.2032 0.135212 0
73.2233 1.95212 0
73.4957 2.24862 0
73.8955 2.2163 0
73.3302 0.236932 0
74.1673 2.16962 0
74.3069 1.97409 0
73.6715 0.392196 0
74.4584 2.14721 0
74.3992 1.11112 0
73.2731 0.743803 0
73.0103 0.490988 0
74.835 1.97898 0
74.8947 1.34105 0
75.3986 1.47059 0
73.3355 0.00424485 0
75.2352 0.853359 0
75.7755 0.864157 0
73.5925 0.0821796 0
74.9617 0.78487 0
76.0656 0.366247 0
75.1476 0.1447 0
73.9034 0.148292 0
76.1048 0.0274105 0
76.2461 -0.2955 0
74.51 0.525732 0
75.2551 -0.858788 0
74.0234 -1.05445 0
75.9864 -0.538562 0
73.6588 -0.0718368 0
76.3829 -1.18178 0
75.2849 4.01385 0
75.694 3.35709 0
71.9355 1.08105 0
75.276 4.06214 0
73.8396 4.02298 0
74.7987 4.61423 0
72.1716 0.387856 0
74.2937 4.92186 0
73.625 5.07089 0
71.4606 0.555535 0
73.6582 5.30165 0
76.4171 -1.60174 0
73.6976 -0.0238288 0
76.3876 -1.9054 0
75.6645 -2.4129 0
75.1227 -1.97441 0
73.4833 -0.0920595 0
75.9501 -2.86043 0
72.8735 5.09589 0
75.6799 -3.90329 0
73.5996 -0.547793 0
75.5311 -3.82042 0
74.9029 -4.62345 0
70.878 1.45591 0
74.7318 -4.66067 0
75.0506 -1.96798 0
75.1592 -4.0821 0
73.6841 -3.03947 0
72.5336 -0.420701 0
74.4935 -4.28968 0
74.0668 -4.74447 0
72.5159 5.40549 0
74.075 -4.71916 0
72.9684 -0.19935 0
73.4415 -5.13209 0
73.0874 -5.63695 0
72.1828 -0.287467 0
72.4407 -5.88201 0
72.5701 -4.17762 0
70.9091 -0.388206 0
71.8613 -6.02407 0
71.5135 -3.26303 0
72.371 -2.29591 0
72.1328 -5.1356 0
71.4048 -5.49662 0
72.7243 2.58847 0
70.2518 0.326839 0
72.1357 1.69975 0
71.2641 -0.0316571 0
71.1789 -5.9472 0
72.3695 5.18864 0
70.1212 0.248444 0
71.7837 4.43643 0
70.6152 -5.95455 0
71.028 -1.0534 0
70.011 -4.46281 0
71.9673 5.90538 0
69.5172 1.64091 0
71.9499 5.85822 0
70.4215 5.17377 0
69.56 0.309671 0
70.9885 5.34407 0
70.3261 -4.49098 0
70.7072 -0.309868 0
70.0385 -6.11006 0
70.0887 -5.94614 0
71.1826 5.69242 0
69.9197 5.63552 0
69.1015 0.0322226 0
70.6092 5.71545 0
69.2125 3.99739 0
69.2825 1.94876 0
69.412 -6.10537 0
69.4124 -0.843376 0
69.651 -6.00585 0
69.1323 5.95032 0
68.9852 -5.71236 0
68.7992 -0.936504 0
68.9255 -2.98226 0
68.2124 -5.58948 0
69.9152 -3.07716 0
68.0698 -5.41308 0
68.4377 -0.280917 0
67.4343 -5.25622 0
68.6137 2.64484 0
68.622 0.405881 0
68.8416 5.17956 0
68.2967 0.124242 0
68.6744 5.90501 0
68.5401 5.66813 0
68.126 0.197169 0
67.9962 5.13393 0
68.0951 0.166301 0
68.3174 -4.95567 0
68.4452 -0.529121 0
69.1492 4.53123 0
67.6617 2.0482 0
67.7773 4.9114 0
67.3681 -5.26064 0
68.538 -0.223429 0
66.205 -4.51996 0
67.7019 -1.42619 0
66.7403 -4.56587 0
68.2038 2.45388 0
67.7771 0.315193 0
68.7632 -4.20985 0
67.7581 -0.531424 0
66.2923 -4.30021 0
67.3247 4.54444 0
67.3258 -3.5617 0
67.695 -0.94877 0
66.5073 -3.78595 0
67.9225 2.87058 0
66.4592 1.71383 0
66.9503 4.05619 0
67.5638 -1.64814 0
66.4333 -4.08846 0
67.4824 1.28228 0
66.8996 5.07226 0
67.6605 -2.14741 0
67.7762 -0.248604 0
66.2145 -3.7548 0
66.7524 4.68693 0
67.6292 1.94488 0
66.6913 3.85315 0
66.5178 3.75687 0
67.6864 1.15819 0
65.9639 3.36041 0
65.5979 -3.30073 0
67.6283 -0.81323 0
65.3406 -3.30625 0
67.0249 -1.62279 0
67.7701 -0.345667 0
65.0091 -2.26945 0
65.9662 4.08163 0
67.6241 1.6688 0
66.8718 2.81246 0
65.4042 -2.03758 0
67.7589 -0.90944 0
64.9046 -1.88567 0
65.0987 3.02831 0
67.8441 0.80573 0
65.3741 2.90662 0
65.6021 2.41285 0
67.8269 0.00947883 0
65.0316 2.51149 0
65.8253 -1.20004 0
67.6612 -1.35837 0
65.2647 -1.06304 0
64.3943 -0.663455 0
67.2373 -0.838797 0
64.5812 -0.546852 0
67.0855 0.929206 0
67.8752 0.169082 0
66.5923 2.10071 0
64.9551 1.99399 0
67.7597 0.192643 0
64.4881 1.31725 0
67.4043 -0.310774 0
67.7595 -0.0234003 0
64.4644 -0.144344 0
64.8205 0.00110737 0
67.9648 -0.130791 0
66.4808 0.313347 0
65.1056 0.486923 0
67.8923 -0.0164466 0
67.4134 -4.53433 0
67.6527 -1.46584 0
67.6608 0.435657 0
68.1058 5.25479 0
68.6178 -5.73138 0
70.0281 -0.646812 0
69.0139 0.851193 0
70.4766 6.02238 0
67.6583 0.76298 0
65.5877 3.90606 0
65.1135 -2.28956 0
67.4908 -0.531752 0
67.5413 -1.7682 0
67.6396 -3.173 0
67.6208 2.03034 0
67.9396 0.539174 0
67.9832 0.00724801 0
64.8955 1.73684 0
68.247 0.447107 0
67.9628 1.72159 0
68.0767 -1.37914 0
68.8171 -0.606857 0
72.2226 -0.666626 0
72.7702 -5.70147 0
73.8743 5.02673 0
71.9546 0.235871 0
67.6036 1.80702 0
69.1181 5.75957 0
68.3012 -5.36366 0
68.4746 -2.22092 0
67.1122 -1.26049 0
65.6818 -0.132107 0
66.808 4.61292 0
67.8151 1.93203 0
67.7138 -1.8262 0
65.6804 -3.72379 0
76.276 -2.41126 0
73.4118 -0.240757 0
73.1928 0.284868 0
76.0881 1.36466 0
67.6176 -2.00497 0
67.7646 -0.277688 0
67.6462 0.75086 0
68.1581 0.77979 0
70.6561 0.42307 0
70.7484 2.72461 0
69.5739 -1.49516 0
71.3967 -1.03126 0
70.2071 3.49838 0
72.2003 5.50403 0
71.5573 -6.01998 0
70.3865 -1.22168 0
72.5794 0.778958 0
73.6654 2.81467 0
72.5905 -1.53519 0
72.9491 -0.0108472 0
73.72 0.15591 0
75.5403 1.22939 0
74.543 -1.84664 0
73.5515 0.00382795 0
72.6113 -0.000149926 0
73.1948 2.45435 0
72.9186 -2.05261 0
73.0351 -0.222927 0
68.2588 -1.40801 0
67.9079 -0.776378 0
67.9227 1.55738 0
68.2661 0.923137 0
67.8326 1.8065 0
67.6915 0.948918 0
67.734 -0.572931 0
67.7421 -1.90319 0
73.6637 0.233621 0
74.4526 0.236964 0
73.9748 -0.198449 0
73.6812 -0.00189216 0
66.5113 -0.767179 0
68.0276 -0.388316 0
67.4355 -0.76448 0
67.7474 -1.11421 0
67.7546 0.377217 0
67.6295 2.09418 0
71.6093 2.08225 0
71.4572 0.297366 0
72.2928 0.00121145 0
71.261 -1.68269 0
69.7881 -0.0206051 0
69.5375 -2.28867 0
70.0314 1.18641 0
69.1193 0.363159 0
67.8496 3.55465 0
67.4855 5.50028 0
67.3441 -4.87995 0
68.0979 -2.89967 0
68.1809 -1.99968 0
67.5157 -1.99054 0
67.9079 3.95515 0
67.9364 2.11944 0
73.1798 -0.325092 0
73.394 -0.155177 0
73.2195 0.122913 0
73.2584 1.53412 0
69.0581 -4.20117 0
69.6922 -3.89939 0
69.4366 3.54039 0
69.9634 6.03957 0
68.5721 -3.4789 0
69.1037 -2.04002 0
69.0488 2.63759 0
68.3447 1.48927 0
70.3972 1.6689 0
70.1963 0.199331 0
71.0411 0.00716921 0
69.794 -1.29908 0
67.35 1.0875 0
67.8871 -0.0147986 0
72.3277 -0.244557 0
72.5219 -1.23044 0
72.5208 0.843162 0
71.8855 0.125089 0
68.1115 -0.986751 0
67.8928 -1.65364 0
68.3519 1.69291 0
67.8831 1.49428 0
67.7595 -0.692995 0
67.7767 -1.64096 0
67.6783 1.08054 0
67.6739 0.607899 0
65.1987 1.47072 0
67.2131 1.38219 0
73.1077 -1.76596 0
75.6183 -3.48609 0
76.0177 2.66556 0
72.7983 1.15264 0
67.1676 -1.9365 0
65.6327 -2.36115 0
68.0532 0.204623 0
68.2322 1.06953 0
66.75 0.0816751 0
67.0679 0.922116 0
68.3867 -1.01068 0
68.6576 -0.130169 0
66.8735 -0.777424 0
67.0302 -0.00140157 0
71.2514 -0.393674 0
70.8913 -0.990444 0
70.8373 0.704133 0
70.6619 -0.0094018 0
67.9 0.299733 0
67.5966 1.27579 0
66.8225 0.432688 0
65.3836 0.734612 0
67.8922 -0.709363 0
67.7602 -0.220123 0
67.3639 0.376859 0
67.342 -0.781152 0
76.1697 0.0621163 0
74.1088 -0.456749 0
74.6936 0.445839 0
75.4369 -1.0829 0
67.7016 -0.185707 0
67.7835 -0.953796 0
67.7099 0.269479 0
67.8923 0.527978 0
69.7557 -0.258063 0
69.4411 -0.673818 0
69.6321 0.53239 0
68.5708 0.11189 0
67.2337 0.206353 0
66.993 0.532737 0
67.3244 -0.663606 0
67.1923 -0.14723 0
67.9935 -1.29035 0
68.552 -2.04402 0
68.1364 1.58801 0
67.9247 1.4621 0
68.5561 2.73261 0
67.5313 1.80766 0
67.8224 -1.88561 0
68.2761 -2.60047 0
73.8708 0.601984 0
73.5168 2.17903 0
73.2815 -2.0101 0
73.9143 -0.753239 0
67.5029 -1.57779 0
67.5498 -1.79615 0
67.5579 1.92002 0
67.3425 1.35978 0
67.5211 0.51498 0
67.6373 0.113786 0
67.7734 -0.0885457 0
67.7076 -0.473967 0
72.1633 2.62929 0
73.8449 4.45042 0
73.4666 -5.50994 0
72.6621 -1.96885 0
66.0316 -2.80986 0
67.5887 -3.08179 0
71.8098 -1.88919 0
72.0178 -0.624268 0
71.0575 0.281343 0
72.9804 1.57447 0
65.8008 3.7613 0
67.0933 2.38374 0
67.7431 -0.0418781 0
67.7502 -0.641616 0
67.5314 0.474087 0
67.4504 0.157297 0
73.5081 -0.100069 0
73.6257 -0.545487 0
73.8467 0.654494 0
73.1886 0.0986342 0
70.7366 0.874662 0
69.5936 0.251088 0
70.2894 -0.21836 0
70.8393 -1.99086 0
72.2794 1.05575 0
71.8015 1.98899 0
71.9698 -1.85226 0
72.9823 -0.997325 0
70.3791 -2.66646 0
70.8188 -1.12013 0
70.4204 1.74293 0
72.364 3.92006 0
67.5052 0.305285 0
67.3449 0.0532562 0
67.718 -0.0848448 0
67.6116 -0.452273 0
66.9904 -0.177799 0
66.8676 -0.0133685 0
66.6554 0.103447 0
67.0165 0.478896 0
68.6122 0.462712 0
68.5522 1.23308 0
68.7139 -1.07705 0
69.1909 -0.279457 0
69.8739 2.10487 0
68.8103 1.85077 0
68.5052 -2.65673 0
68.0988 -2.60706 0
73.764 0.164632 0
73.7255 0.0736909 0
73.6622 -0.0524687 0
73.8138 -0.379092 0
69.0103 3.21003 0
69.1313 2.22795 0
68.2442 -0.785442 0
68.1399 -0.280787 0
68.1318 0.276489 0
68.4854 0.835371 0
66.9288 -0.705151 0
67.4311 -1.51455 0
76.0938 -0.944145 0
74.3454 -0.646333 0
74.4025 1.63879 0
76.0862 0.679459 0
67.6328 -2.09638 0
67.8026 -0.368524 0
67.5132 0.53793 0
67.6421 2.1196 0
67.8705 0.214746 0
67.8292 1.17082 0
67.945 -0.604756 0
68.0074 -0.0333424 0
66.278 -0.184554 0
64.4545 0.172764 0
71.9631 1.90697 0
74.0918 1.19281 0
73.4046 -1.18203 0
74.1575 -2.74926 0
67.5748 1.93126 0
67.244 1.13109 0
67.8119 0.0394278 0
67.6976 -0.102871 0
69.6252 4.97161 0
68.1379 3.58653 0
69.183 -3.49848 0
68.6641 -5.91946 0
67.3474 1.0642 0
67.7196 1.26223 0
70.7622 0.924401 0
70.6897 1.77728 0
70.4311 -1.42247 0
71.182 -0.311064 0
67.7442 -0.111782 0
67.3094 -0.0835327 0
67.25 0.0667414 0
67.601 0.357508 0
74.3848 -1.64188 0
74.697 -0.302347 0
74.1977 0.959821 0
75.0322 1.67436 0
67.4987 0.193045 0
67.1442 -1.46842 0
67.7705 1.90764 0
67.9743 1.90824 0
68.0832 -2.04814 0
67.7832 -1.86848 0
67.9323 0.0531066 0
67.6261 0.740307 0
70.0807 -4.08447 0
69.1044 -2.73402 0
68.8068 -1.88786 0
69.3764 -0.891187 0
74.0835 -0.0294176 0