# vtk DataFile Version 3.0
Unstructured Grid for Triangles
ASCII
DATASET UNSTRUCTURED_GRID
POINTS 29612 DOUBLE
-0.000272397 1.23686e-05 0
-0.000295789 9.5838e-06 0
-0.000277865 -3.1235e-06 0
0.002024 0.0005 0
0.00203975 0.00049875 0
0.00205 0.0005 0
0.00203975 -0.00049875 0
0.002024 -0.0005 0
0.00205 -0.0005 0
0.0020295 0.0004975 0
0.0020295 -0.0004975 0
0.00201925 0.00049625 0
0.00201925 -0.00049625 0
-0.000529747 -0.000479887 0
-0.00055 -0.0005 0
-0.000524 -0.0005 0
-0.000505983 -0.000484325 0
-0.000498 -0.0005 0
-0.000472 -0.0005 0
-0.000483864 -0.000487761 0
-0.000446 -0.0005 0
-0.000459 -0.000484239 0
-0.000429453 -0.000424878 0
-0.000447486 -0.000420717 0
-0.000441829 -0.000436609 0
-0.000512578 -0.000462101 0
-0.000493078 -0.000453594 0
-0.00050706 -0.000439006 0
-0.000419243 -0.000477545 0
-0.000440307 -0.000471837 0
-0.00043691 -0.000486724 0
-0.000516129 -0.000420948 0
-0.000495355 -0.000415432 0
-0.000511646 -0.00040128 0
-0.000394697 -0.000481197 0
-0.000406302 -0.000455143 0
-0.000537257 -0.000388197 0
-0.000531099 -0.000407297 0
-0.000523982 -0.000388328 0
-0.000370063 -0.000472956 0
-0.000368 -0.0005 0
-0.00035308 -0.000485302 0
-0.0005072 -0.00037867 0
-0.000485506 -0.000383975 0
-0.000490949 -0.000359622 0
-0.000337127 -0.000484331 0
-0.000316 -0.0005 0
-0.000326495 -0.00047415 0
-0.00055 -0.00035 0
-0.000531201 -0.000370361 0
-0.000528367 -0.000346817 0
-0.000363898 -0.000448809 0
-0.000383315 -0.000460336 0
-3.26269e-05 -0.000415503 0
-5.99662e-05 -0.000409556 0
-5.46944e-05 -0.000429488 0
-0.000529747 0.000479887 0
-0.00055 0.0005 0
-0.00055 0.000475 0
-0.00055 0.00045 0
-0.000534834 0.000429171 0
-0.000526943 0.000442611 0
-0.000534026 0.000460176 0
-0.000531099 0.000407297 0
-0.000511672 0.000401178 0
-0.000516129 0.000420948 0
-0.000524 0.0005 0
-0.000505983 0.000484325 0
-0.000531201 0.000370361 0
-0.0005072 0.00037867 0
-0.000523982 0.000388328 0
-0.00048341 0.000469132 0
-0.000483679 0.000487539 0
-0.000528367 0.000346817 0
-0.00055 0.000325 0
-0.000525657 0.000328474 0
-0.000498 0.0005 0
-0.000530382 0.0003125 0
-0.000419243 0.000477545 0
-0.000440015 0.00047335 0
-0.000425917 0.000463678 0
-0.000435138 0.000262661 0
-0.000414982 0.000274462 0
-0.000435654 0.000285217 0
-0.000459 0.000484239 0
-0.000436852 0.000487027 0
-0.000446 0.0005 0
-0.000533308 0.000292503 0
-0.00055 0.000275 0
-0.000523377 0.000276953 0
-0.000425282 0.000446352 0
-0.000409368 0.000435728 0
-0.000406302 0.000455143 0
0.002009 0.000495 0
0.001998 0.0005 0
0.00199875 0.00049375 0
0.0019885 0.0004925 0
0.001972 0.0005 0
0.00197825 0.00049125 0
0.001968 0.00049 0
0.00195775 0.00048875 0
0.001946 0.0005 0
0.0019475 0.0004875 0
0.00193725 0.00048625 0
0.00192 0.0005 0
0.001927 0.000485 0
0.00191675 0.00048375 0
0.0019065 0.0004825 0
0.001894 0.0005 0
0.00189625 0.00048125 0
0.001886 0.00048 0
0.001868 0.0005 0
0.00187575 0.00047875 0
0.0018655 0.0004775 0
0.00185515 0.00048575 0
0.001842 0.0005 0
0.001845 0.000475 0
0.00185525 0.00047625 0
0.00182564 0.0004829 0
0.001816 0.0005 0
0.0018245 0.0004725 0
0.00183475 0.00047375 0
0.00181425 0.00047125 0
0.00180295 0.000482657 0
0.00179 0.0005 0
0.00179375 0.00046875 0
0.001804 0.00047 0
0.00178168 0.000480619 0
0.001764 0.0005 0
0.00177325 0.00046625 0
0.0017835 0.0004675 0
0.00176428 0.000476631 0
0.001763 0.000465 0
0.001738 0.0005 0
0.001751 0.000484164 0
0.00175275 0.00046375 0
0.00174025 0.000475632 0
0.001712 0.0005 0
0.00172615 0.000478449 0
0.001722 0.00046 0
0.00173225 0.00046125 0
0.0017015 0.0004575 0
0.00171243 0.00047381 0
0.00169554 0.000479999 0
0.001686 0.0005 0
0.00167507 0.000479751 0
0.00168498 0.000464861 0
0.00166 0.0005 0
0.0016558 0.000471459 0
0.00167135 0.000462887 0
0.001681 0.000455 0
0.0016605 0.0004525 0
0.00167075 0.00045375 0
0.00164059 0.000461599 0
0.0016394 0.000479551 0
0.00162881 0.00046615 0
0.00162975 0.00044875 0
0.00165025 0.00045125 0
0.00164 0.00045 0
0.00161754 0.000458641 0
0.00161722 0.000478101 0
0.00159956 0.000458294 0
0.00160925 0.00044625 0
0.0016195 0.0004475 0
0.00157667 0.000460322 0
0.00158875 0.00044375 0
0.00159194 0.000480155 0
0.001599 0.000445 0
0.0015785 0.0004425 0
0.00155808 0.000456757 0
0.00155647 0.000476701 0
0.00154059 0.000466642 0
0.00153756 0.000450083 0
0.00154839 0.000450446 0
0.00156825 0.00044125 0
0.00151954 0.000480508 0
0.00154052 0.00048477 0
0.00153 0.0005 0
0.00154775 0.00043875 0
0.00152142 0.000456625 0
0.00152821 0.000445753 0
0.0015375 0.0004375 0
0.001504 0.0005 0
0.00149644 0.000485168 0
0.00151787 0.000443178 0
0.00152725 0.00043625 0
0.00150675 0.00043375 0
0.001517 0.000435 0
0.00148119 0.000450887 0
0.00148072 0.000475756 0
0.00146584 0.000463516 0
0.00150008 0.00046396 0
0.00149351 0.00044543 0
0.0015061 0.000446252 0
0.001476 0.00043 0
0.00148625 0.00043125 0
0.00146492 0.000482975 0
0.00144888 0.000473562 0
0.00146676 0.000444259 0
0.00145255 0.000453656 0
0.00145652 0.000438669 0
0.00141401 0.000479821 0
0.001426 0.0005 0
0.0014 0.0005 0
0.00144374 0.000438862 0
0.0014555 0.0004275 0
0.001435 0.000425 0
0.00144525 0.00042625 0
0.00142746 0.000438121 0
0.00141288 0.000443191 0
0.00141707 0.000432778 0
0.0013921 0.000438992 0
0.00140355 0.00045932 0
0.00138302 0.00045922 0
0.00142912 0.000458869 0
0.00140592 0.000430037 0
0.0014145 0.0004225 0
0.00136458 0.00045869 0
0.00137106 0.00044063 0
0.001394 0.00042 0
0.00138259 0.000428915 0
0.00137484 0.000477094 0
0.00139166 0.000478902 0
0.0013586 0.000478984 0
0.00133449 0.000478649 0
0.00134717 0.000461848 0
0.00137256 0.000425134 0
0.00135323 0.000424541 0
0.00136325 0.00041625 0
0.00136122 0.00042876 0
0.00131206 0.000447284 0
0.00133168 0.000456738 0
0.00131773 0.000465243 0
0.00134756 0.000440343 0
0.00132747 0.000436463 0
0.00133483 0.000426786 0
0.00131081 0.00041867 0
0.00132382 0.000422815 0
0.00131507 0.00043122 0
0.00131059 0.000480123 0
0.0013325 0.0004125 0
0.0012915 0.0004075 0
0.0012982 0.000418199 0
0.00128915 0.000426216 0
0.00126366 0.000447574 0
0.00127331 0.000430908 0
0.00128781 0.000444872 0
0.00125336 0.000428376 0
0.00130218 0.000431077 0
0.00127894 0.000416344 0
0.00124774 0.000469608 0
0.00127668 0.000464148 0
0.00126591 0.00048331 0
0.00126722 0.000418415 0
0.00125768 0.000411931 0
0.00124326 0.000413546 0
0.0012505 0.0004025 0
0.00122408 0.000450118 0
0.00120276 0.000447432 0
0.0012139 0.000432235 0
0.00124336 0.000444132 0
0.00123056 0.000427595 0
0.00122977 0.000409049 0
0.0012185 0.000469217 0
0.00122676 0.000485947 0
0.00120525 0.000486094 0
0.00121479 0.000413153 0
0.00119547 0.000424221 0
0.00120249 0.000407448 0
0.00119925 0.00039625 0
0.00119346 0.000406114 0
0.00117479 0.000447279 0
0.00114726 0.000445259 0
0.0011571 0.000427814 0
0.00119443 0.000466611 0
0.00117447 0.000421596 0
0.00118421 0.00040752 0
0.00117409 0.000404437 0
0.00116775 0.000470073 0
0.001179 0.0004855 0
0.00115473 0.000484802 0
0.0011685 0.0003925 0
0.00117875 0.00039375 0
0.00115454 0.000400551 0
0.001148 0.00039 0
0.00115825 0.00039125 0
0.00111703 0.000423398 0
0.00113786 0.000426731 0
0.00112589 0.000443871 0
0.00113234 0.000406671 0
0.00114754 0.000413371 0
0.001106 0.000442326 0
0.00109703 0.000424261 0
0.0011275 0.0003875 0
0.00113775 0.00038875 0
0.00110211 0.000480875 0
0.00108244 0.000471951 0
0.00109312 0.000458413 0
0.00111755 0.000399116 0
0.0010944 0.000392972 0
0.00110415 0.000405876 0
0.00108839 0.000407536 0
0.00106472 0.000476905 0
0.00107274 0.000457868 0
0.00108011 0.000392415 0
0.00106885 0.000404365 0
0.00106625 0.000388708 0
0.00105286 0.000419254 0
0.00105055 0.000395469 0
0.00104215 0.000439764 0
0.00106346 0.000440629 0
0.00100945 0.000451249 0
0.00102825 0.00045614 0
0.00101189 0.000468452 0
0.00107625 0.00038125 0
0.00105575 0.00037875 0
0.001066 0.00038 0
0.00103352 0.000476905 0
0.00101803 0.00048465 0
0.00103685 0.000389398 0
0.0010245 0.00038825 0
0.00103525 0.00037625 0
0.00101092 0.000399779 0
0.00101267 0.000382619 0
0.00101382 0.00042025 0
0.00103187 0.000405286 0
0.00103359 0.000424605 0
0.000987383 0.00045447 0
0.000999411 0.000435161 0
0.0009744 0.000433145 0
0.0010045 0.0003725 0
0.00101475 0.00037375 0
0.000970845 0.000465215 0
0.000952614 0.000467664 0
0.000961768 0.000449944 0
0.00099729 0.000387704 0
0.000978901 0.00039598 0
0.000985823 0.000381492 0
0.000962289 0.000393709 0
0.000974259 0.000381279 0
0.00097375 0.00036875 0
0.000963045 0.000376631 0
0.000958 0.0005 0
0.000932 0.0005 0
0.000947542 0.00048457 0
0.000949675 0.000385245 0
0.000936214 0.000389472 0
0.000940006 0.000374906 0
0.000966411 0.000412573 0
0.000944241 0.000407079 0
0.000903569 0.000424993 0
0.000921701 0.000402409 0
0.000927439 0.000427744 0
0.000889795 0.000409067 0
0.000903071 0.00040248 0
0.000925447 0.000377721 0
0.00093275 0.00036375 0
0.000907708 0.000387127 0
0.000911303 0.000370839 0
0.000911933 0.000455145 0
0.000930678 0.000473279 0
0.000911886 0.000482603 0
0.000887724 0.000388076 0
0.000899595 0.000375116 0
0.000902 0.00036 0
0.000889241 0.00036954 0
0.000836977 0.000459472 0
0.000836223 0.000483578 0
0.000820467 0.000474142 0
0.000871227 0.000403557 0
0.000861 0.000355 0
0.000868368 0.000365714 0
0.00085484 0.00036588 0
0.000847735 0.000402845 0
0.000823121 0.000421599 0
0.000826582 0.000398147 0
0.000846943 0.00042454 0
0.000838832 0.000378613 0
0.000835569 0.000363808 0
0.000844098 0.00036291 0
0.00085075 0.00035375 0
0.000851465 0.000477164 0
0.00083025 0.00035125 0
0.000822824 0.000368659 0
0.00081446 0.000357362 0
0.000805884 0.000371794 0
0.000753471 0.000477524 0
0.000738313 0.000473927 0
0.000739102 0.000461526 0
0.00079826 0.000358588 0
0.000788607 0.000376287 0
0.000781733 0.000357987 0
0.000816783 0.000384471 0
0.000807975 0.000404095 0
0.000752138 0.000404775 0
0.000767682 0.000417043 0
0.000749617 0.000421803 0
0.000752903 0.000384008 0
0.000738293 0.000393136 0
0.000772614 0.000394048 0
0.00076863 0.000371878 0
0.000765995 0.000354121 0
0.000779 0.000345 0
0.00071811 0.000453059 0
0.000738069 0.000437967 0
0.000752085 0.000365972 0
0.000728123 0.000374583 0
0.000741845 0.000354664 0
[...]
CELL_DATA 58684
VECTORS velocity DOUBLE
65.962 0.219342 0
67.9325 -2.69139e-05 0
67.8933 -0.000419969 0
67.9497 -0.00689816 0
67.9124 0.00892602 0
67.9539 -0.00217573 0
67.9184 0.00191998 0
67.6601 -0.0234844 0
67.5997 -0.0482841 0
67.535 -0.0189514 0
67.5904 -0.020126 0
67.643 -0.699142 0
67.5572 -0.287346 0
67.7296 -0.206895 0
67.5628 -0.484687 0
67.958 -0.229135 0
67.6804 -0.264926 0
68.2925 -0.146398 0
67.6446 -0.818643 0
68.8574 -0.0755805 0
67.772 -0.256353 0
68.272 -0.359056 0
75.4337 -1.68582 0
67.7406 0.0221402 0
67.6571 0.150929 0
67.7461 0.0618848 0
67.6248 0.362558 0
67.5971 0.047077 0
67.6829 0.481413 0
67.5615 0.120088 0
67.7903 0.364349 0
67.5215 0.0739182 0
67.6328 0.365068 0
67.8289 0.254301 0
67.872 1.61901 0
67.6334 0.130347 0
67.8961 0.455269 0
67.8927 0.483489 0
67.9757 0.0123625 0
67.9911 0.00267258 0
68.0137 -0.00909596 0
68.0196 0.00975867 0
68.0632 0.00553856 0
68.0901 -0.00356777 0
68.1034 0.00498424 0
68.1236 0.0243246 0
68.1633 0.0124524 0
68.1881 0.00852079 0
68.202 0.0272839 0
68.2637 0.0151601 0
68.2885 0.0155444 0
68.3138 0.0306249 0
68.338 0.0468027 0
68.395 0.0240865 0
68.4291 0.0259397 0
68.4485 0.037698 0
68.5286 0.0221344 0
68.5702 0.019837 0
68.6017 0.0281966 0
68.6388 0.0380492 0
68.71 0.0211712 0
68.716 0.0257728 0
68.8108 0.0268229 0
68.8801 0.0192922 0
68.8796 0.0244771 0
68.9052 0.041027 0
68.9563 0.0319615 0
69.0093 0.014402 0
69.0141 0.0262669 0
69.057 0.0261733 0
69.1058 0.00767919 0
69.1093 0.011049 0
69.1325 0.0131338 0
69.1597 -0.00477407 0
69.184 0.00313508 0
69.1921 -0.0203195 0
69.2034 -0.018402 0
69.2139 -0.00729492 0
69.2153 -0.0533669 0
69.2063 -0.0562502 0
69.2122 -0.0520125 0
69.2061 -0.0140737 0
69.191 -0.0357053 0
69.1911 -0.08373 0
69.1366 -0.0570569 0
69.1415 -0.0852172 0
69.1759 -0.0995145 0
69.1557 -0.123784 0
69.0495 -0.104952 0
69.0366 -0.12504 0
69.0858 -0.119996 0
69.0538 -0.145547 0
68.9495 -0.123505 0
68.9959 -0.109193 0
68.9792 -0.161324 0
68.8625 -0.148381 0
68.8525 -0.112026 0
68.9082 -0.171948 0
68.848 -0.168323 0
68.7611 -0.11167 0
68.7066 -0.134577 0
68.7889 -0.154057 0
68.6653 -0.0404706 0
68.7224 -0.150425 0
68.6755 -0.132509 0
68.697 -0.155558 0
68.5992 -0.0223839 0
68.6735 -0.151668 0
68.6564 -0.16216 0
68.5401 -0.0739962 0
68.5654 -0.0796295 0
68.5942 -0.119414 0
68.5672 -0.140103 0
68.5098 -0.0526472 0
68.5277 -0.110257 0
68.5134 -0.0691843 0
68.4362 -0.0090549 0
68.5102 -0.121179 0
68.501 -0.140598 0
68.4671 -0.114762 0
68.42 -0.0890469 0
68.4434 -0.0642397 0
68.4594 -0.131607 0
68.3962 -0.0874704 0
68.4286 -0.140531 0
68.4086 -0.051112 0
68.4191 -0.126211 0
68.366 -0.0491035 0
68.4164 -0.135334 0
68.3943 -0.159743 0
68.3666 -0.0916646 0
68.3738 -0.1419 0
68.3527 -0.0662412 0
68.3703 -0.163915 0
68.3458 -0.054025 0
68.3683 -0.17148 0
68.3757 -0.177024 0
68.3884 -0.134888 0
68.4031 -0.154572 0
68.3756 -0.15275 0
68.384 -0.168799 0
68.3694 -0.0797614 0
68.4262 -0.185756 0
68.459 -0.198084 0
68.5555 -0.132978 0
68.43 -0.101023 0
68.4565 -0.175604 0
68.4859 -0.197272 0
68.4946 -0.0350895 0
68.6241 -0.192864 0
68.6438 -0.192292 0
68.8284 -0.118706 0
68.6508 -0.122195 0
68.6954 -0.159764 0
68.7386 -0.200013 0
68.7319 -0.0329787 0
68.778 -0.213317 0
68.8999 -0.208537 0
69.0258 -0.171295 0
68.9478 -0.187007 0
69.1513 -0.183869 0
69.0146 -0.204402 0
69.1965 -0.056692 0
69.0483 -0.19065 0
69.2251 -0.205985 0
69.3305 -0.0790096 0
69.3672 -0.248598 0
69.4456 -0.241576 0
69.4702 -0.161869 0
69.6761 -0.151332 0
69.3594 -0.237597 0
69.421 -0.261912 0
69.6394 -0.0772576 0
69.57 -0.292198 0
69.6697 -0.324542 0
69.5767 -0.251246 0
69.7731 -0.170985 0
69.8289 -0.238965 0
69.6848 -0.354376 0
69.9124 -0.157333 0
69.8013 -0.36236 0
69.8439 -0.384578 0
69.858 -0.432225 0
69.9582 -0.00479807 0
69.9874 -0.453166 0
69.8773 -0.366453 0
70.0205 -0.35258 0
70.0781 -0.413737 0
70.0121 -0.502287 0
70.0729 -0.51923 0
70.0612 -0.129159 0
70.0899 -0.513864 0
70.1118 -0.575277 0
70.1284 -0.561071 0
70.1488 -0.128725 0
70.1256 -0.464791 0
70.2221 -0.608559 0
70.2164 -0.470658 0
70.1641 -0.40765 0
70.2272 -0.62685 0
70.2457 -0.633008 0
70.1762 -0.120752 0
70.2699 -0.651287 0
70.283 -0.619855 0
70.334 -0.122443 0
70.3029 -0.632542 0
70.2599 -0.49896 0
70.3536 -0.415305 0
70.4129 -0.50203 0
70.3366 -0.577885 0
70.3614 -0.64636 0
70.3737 -0.260958 0
70.4401 -0.592239 0
70.4418 -0.668583 0
70.6025 -0.648052 0
70.6298 0.000192499 0
70.5476 -0.56347 0
70.6156 -0.655939 0
70.4889 -0.19679 0
70.6793 -0.674892 0
70.8524 -0.424779 0
70.7372 -0.706798 0
71.1997 -0.241709 0
70.9264 -0.622864 0
70.9063 -0.695448 0
71.0386 -0.151147 0
71.0902 -0.727081 0
71.3733 -0.764006 0
71.2414 -0.675675 0
71.4214 -0.424694 0
71.4003 -0.878861 0
71.7936 -0.41457 0
72.4154 -0.07969 0
71.3802 -0.711242 0
71.5845 -0.9058 0
71.7249 -0.994743 0
72.3572 -0.420774 0
72.0446 -0.984792 0
72.2357 -1.12068 0
72.7718 -0.164832 0
72.5232 -1.24963 0
72.2959 -1.28392 0
72.4359 -1.01443 0
72.9552 -0.582094 0
73.055 -0.730805 0
72.5524 -1.47474 0
73.5939 -0.00518871 0
72.713 -1.64686 0
72.9167 -1.67451 0
72.8451 -1.73844 0
73.8499 -0.607939 0
73.329 -1.6546 0
73.5035 -1.84228 0
74.0404 -0.0134402 0
73.5863 -2.18548 0
74.0811 -2.17163 0
73.8251 -1.40234 0
74.0234 -0.757405 0
73.8821 -2.32084 0
74.162 -0.931959 0
74.4664 -0.124887 0
74.0934 -1.84473 0
74.2612 -2.41032 0
74.5705 -2.38472 0
74.5864 -0.483176 0
74.9561 -2.01504 0
74.7193 -2.36269 0
74.7949 -0.216079 0
74.9868 -2.54246 0
75.3952 -2.47168 0
75.4376 -1.43085 0
75.3427 0.0226728 0
75.8383 -2.27378 0
75.7241 -0.649311 0
76.158 -0.612931 0
75.8991 -1.99533 0
75.7778 -1.46577 0
76.7501 -1.77875 0
75.9696 -0.0966177 0
76.5883 -2.02717 0
76.8399 -1.04525 0
77.4521 -1.25868 0
75.5764 -0.00530627 0
78.1167 -0.353073 0
78.1499 -0.0329021 0
76.9281 0.0897775 0
78.2732 -0.935633 0
78.834 -0.181866 0
77.5855 0.622829 0
76.6007 0.250769 0
77.5796 0.0393569 0
79.1575 0.425901 0
76.969 0.194546 0
79.438 1.20705 0
79.3092 0.40439 0
79.3806 0.660878 0
77.4461 0.957283 0
78.8462 1.47063 0
79.8738 1.56026 0
77.2174 0.193563 0
79.7825 1.95908 0
79.7302 2.05715 0
79.5984 3.3189 0
76.2825 0.272776 0
80.215 2.96878 0
78.7609 2.24199 0
77.33 1.09436 0
77.3788 2.17513 0
80.1711 3.30702 0
79.7065 3.88543 0
76.6833 0.468893 0
79.6074 4.3755 0
67.9414 -0.0123941 0
67.9553 -0.00300679 0
67.9795 0.00912696 0
67.9863 -0.011997 0
68.0288 -0.00551262 0
68.0558 0.00273465 0
68.0689 -0.00970976 0
68.0902 -0.0272546 0
68.1289 -0.0126939 0
68.1554 -0.00820495 0
68.1687 -0.0256079 0
68.2316 -0.0158239 0
68.2555 -0.019213 0
68.2822 -0.0338375 0
68.3073 -0.0457651 0
68.3671 -0.0249311 0
68.4007 -0.0298598 0
68.4214 -0.0404419 0
68.503 -0.0230897 0
68.544 -0.0213523 0
68.5762 -0.0301881 0
68.6631 -0.0282252 0
68.6141 -0.0414931 0
68.7235 -0.0114976 0
68.8289 -0.0319483 0
68.7859 -0.0292543 0
68.8808 -0.0446634 0
68.9312 -0.0353953 0
68.9683 -0.0229681 0
68.9154 -0.00757376 0
69.0291 -0.0290165 0
69.0657 -0.0118798 0
69.0311 -0.00565071 0
69.1297 -0.00143287 0
69.1357 0.00125553 0
69.1517 0.00614274 0
69.114 0.00233762 0
69.1601 0.0160982 0
69.1756 0.0230133 0
69.17 0.01546 0
69.1817 0.0641289 0
69.1748 0.0386451 0
69.1671 0.0533345 0
69.188 0.0352155 0
69.1517 0.080021 0
69.1325 0.0954806 0
69.0912 0.0553617 0
69.1301 0.0829742 0
69.09 0.104755 0
69.0673 0.124305 0
68.9558 0.0827846 0
69.0009 0.101699 0
68.9824 0.120197 0
68.9467 0.156148 0
68.8505 0.0874246 0
68.8885 0.134347 0
68.872 0.158167 0
68.7194 0.0737841 0
68.7992 0.105539 0
68.7887 0.156292 0
68.7637 0.160225 0
68.6595 0.0929229 0
68.6474 0.0617381 0
68.6394 0.121447 0
68.7792 0.033044 0
68.6279 0.140251 0
68.5835 0.148702 0
68.5877 0.128706 0
68.5826 0.0767154 0
68.5471 0.141604 0
68.5343 0.125876 0
68.4312 0.0434059 0
68.5219 0.106809 0
68.4738 0.112372 0
68.4538 0.113485 0
68.4781 0.0282208 0
68.4434 0.0815975 0
68.4211 0.121571 0
68.4318 0.061471 0
68.4023 0.106434 0
68.3663 0.11764 0
68.3634 0.0843142 0
68.3266 0.0353904 0
68.3445 0.105084 0
68.3429 0.114738 0
68.2983 0.0232537 0
68.3143 0.125878 0
68.3083 0.0921775 0
68.282 0.109002 0
68.2934 0.0753666 0
68.2829 0.132434 0
68.2487 0.158464 0
68.2282 0.0462683 0
68.2484 0.105385 0
68.2512 0.166034 0
68.2367 0.12191 0
68.239 0.0561663 0
68.2497 0.15833 0
68.2506 0.160754 0
68.2217 0.0466775 0
68.2596 0.080548 0
68.2704 0.143385 0
68.2852 0.175781 0
68.2384 0.105003 0
68.3188 0.170217 0
68.3477 0.174906 0
68.4287 0.0587846 0
68.3432 0.117518 0
68.4309 0.180117 0
68.4361 0.165131 0
68.3244 0.0688202 0
68.4777 0.16899 0
68.5834 0.159485 0
68.6329 0.0774178 0
68.5174 0.15733 0
68.7029 0.190897 0
68.699 0.162378 0
68.5141 0.0636933 0
68.761 0.170606 0
68.9196 0.203889 0
68.7963 0.0806621 0
68.9211 0.175391 0
68.9931 0.0867634 0
69.0246 0.204866 0
68.9322 0.127095 0
69.0539 0.219619 0
69.1748 0.230217 0
69.1619 0.0784859 0
69.1699 0.242289 0
69.3051 0.284314 0
69.4209 0.0966205 0
69.1362 0.217643 0
69.3397 0.2806 0
69.3891 0.306515 0
69.374 0.0633661 0
69.4288 0.307695 0
69.5633 0.405598 0
69.5782 0.381628 0
69.6346 0.135834 0
69.685 0.423303 0
69.5424 0.163844 0
69.4646 0.310049 0
69.6501 0.432422 0
69.7686 0.509596 0
69.7811 0.538782 0
69.6035 0.00417272 0
69.8841 0.623341 0
69.8895 0.620384 0
69.9306 0.579325 0
69.9455 0.30674 0
70.0237 0.320667 0
69.9401 0.625618 0
69.8546 0.183868 0
70.0313 0.691424 0
70.0135 0.684207 0
70.0402 0.637694 0
70.0358 0.19599 0
70.0601 0.692146 0
70.2099 0.814029 0
70.0759 0.335492 0
70.0882 0.367486 0
70.1368 0.683172 0
70.2865 0.814485 0
70.0427 0.231856 0
70.3257 0.850738 0
70.3432 0.81972 0
70.1749 0.176931 0
70.4827 0.878746 0
70.5119 0.849669 0
70.5335 0.725351 0
70.3271 0.347028 0
70.3096 0.403862 0
70.4547 0.813821 0
70.2416 0.278342 0
70.6544 0.911959 0
70.7138 0.848951 0
70.7076 0.784748 0
70.3936 0.135812 0
70.9532 0.85985 0
70.9799 0.86964 0
70.7606 0.5257 0
71.1637 0.703641 0
70.8329 0.438251 0
71.0476 0.831454 0
70.6777 0.280271 0
71.3351 0.921617 0
71.3791 0.885837 0
70.7461 0.230841 0
71.4799 0.862675 0
71.8359 0.966611 0
71.6655 0.958395 0
71.7459 0.237569 0
72.2205 1.03419 0
72.2858 1.13921 0
71.4755 0.658551 0
72.2598 0.895099 0
71.7069 0.40058 0
72.6171 1.24747 0
72.2658 0.13827 0
72.6987 1.26042 0
72.74 1.25158 0
71.8576 0.111331 0
72.6876 1.1667 0
73.1466 1.46131 0
73.2829 1.52451 0
73.1308 0.401478 0
73.3776 1.57417 0
73.4736 1.73378 0
72.7095 0.847597 0
73.7569 1.25868 0
73.4743 0.433795 0
73.6829 1.82968 0
73.6405 0.163617 0
73.8596 1.85627 0
73.99 1.88921 0
73.3113 0.120064 0
74.0017 1.67868 0
74.3452 2.05968 0
74.614 2.04655 0
73.9531 0.407087 0
74.4662 1.97263 0
74.8399 2.20617 0
74.1821 1.47324 0
75.1016 1.47928 0
74.1609 0.365725 0
74.674 1.97079 0
74.3308 0.159677 0
75.2996 2.23472 0
75.4393 2.04818 0
74.1751 0.127756 0
75.4141 1.61287 0
75.8193 1.83243 0
76.2641 1.74289 0
75.0201 0.17239 0
76.5755 1.60883 0
76.7503 1.39617 0
75.5756 0.177341 0
76.9074 1.53149 0
76.7831 0.585845 0
75.0574 0.54966 0
74.7408 0.399585 0
77.372 1.30687 0
77.498 0.641721 0
78.1233 0.701634 0
74.9803 -0.0149028 0
78.0775 0.127968 0
78.7525 0.0358946 0
75.5325 -0.00265753 0
77.6806 0.0989771 0
79.2179 -0.490082 0
78.2623 -0.563152 0
76.326 -0.121336 0
79.3705 -0.81503 0
79.6412 -1.13198 0
77.1085 -0.0143532 0
78.8903 -1.61052 0
77.9488 -1.67484 0
79.4569 -1.35555 0
76.937 -0.253966 0
80.0467 -1.9994 0
79.0778 4.87861 0
79.5418 4.33589 0
75.2272 1.5214 0
79.018 4.87013 0
77.3411 4.72028 0
78.4286 5.37264 0
75.7927 0.603544 0
77.752 5.56876 0
76.8607 5.59249 0
74.5619 0.80167 0
76.8751 5.8843 0
80.1504 -2.40399 0
76.7614 -0.112662 0
80.1733 -2.69152 0
79.5812 -3.13929 0
78.9905 -2.70396 0
77.2064 -0.197068 0
79.8208 -3.56526 0
75.8117 5.53788 0
79.4743 -4.51303 0
77.5506 -0.97393 0
79.2881 -4.43037 0
78.5685 -5.13621 0
73.3867 1.8951 0
78.3274 -5.116 0
78.9224 -2.69337 0
78.8071 -4.59471 0
77.2563 -3.60326 0
76.32 -0.661195 0
78.0777 -4.7656 0
77.4445 -5.0967 0
75.3111 5.77272 0
77.4959 -5.13181 0
76.9186 -0.337743 0
76.6437 -5.41726 0
76.165 -5.86629 0
75.7797 -0.433114 0
75.231 -6.00125 0
75.5996 -4.52036 0
73.6412 -0.52402 0
74.4037 -6.07789 0
74.1146 -3.66078 0
75.7414 -2.86052 0
74.813 -5.3261 0
73.7636 -5.56799 0
76.0713 3.24474 0
72.4021 0.427197 0
75.4998 2.28844 0
74.2125 -0.0319491 0
73.4135 -5.92339 0
75.0076 5.45779 0
72.148 0.319817 0
74.2646 4.77252 0
72.6153 -5.87555 0
73.7818 -1.40237 0
71.5554 -4.40392 0
74.4472 6.15837 0
70.8715 1.74558 0
74.3896 6.06071 0
72.1304 5.23096 0
71.1704 0.365712 0
72.946 5.39443 0
72.1605 -4.56952 0
73.2364 -0.422208 0
71.8546 -5.97717 0
71.8506 -5.79449 0
73.2964 5.79386 0
71.4756 5.58068 0
70.3707 0.00972916 0
72.494 5.74571 0
70.199 3.77092 0
70.4239 1.97406 0
71.023 -5.9227 0
70.9604 -0.98679 0
71.304 -5.84172 0
70.5195 5.77507 0
70.3635 -5.48999 0
69.902 -0.95228 0
69.7573 -2.70529 0
69.3656 -5.25096 0
71.3609 -3.15477 0
69.1636 -5.06376 0
69.2809 -0.243989 0
68.4299 -4.86815 0
69.1885 2.30278 0
69.5899 0.384928 0
69.9591 4.93185 0
68.849 0.0801258 0
69.9468 5.68802 0
69.6652 5.3904 0
68.4862 0.155234 0
68.8733 4.74986 0
68.2507 0.133117 0
69.2909 -4.6159 0
69.2986 -0.489731 0
70.206 4.35052 0
67.9261 1.60762 0
68.6056 4.46877 0
68.31 -4.87742 0
69.4327 -0.227038 0
67.0267 -4.1127 0
67.9354 -1.16443 0
67.4886 -4.12308 0
68.5567 1.97435 0
67.8007 0.274338 0
69.6632 -3.85552 0
67.7676 -0.272792 0
67.0368 -3.878 0
68.0307 4.05069 0
67.9098 -3.10143 0
67.759 -0.627313 0
67.1572 -3.3454 0
68.2946 2.31641 0
67.0325 1.39234 0
67.5736 3.50566 0
68.0462 -1.49689 0
67.1487 -3.6798 0
67.7885 1.04052 0
67.7186 4.62244 0
68.0516 -1.86398 0
67.7927 -0.184289 0
66.8918 -3.34345 0
67.5176 4.2053 0
67.9581 1.52608 0
67.2628 3.32222 0
67.1419 3.26109 0
67.9591 0.966471 0
66.6008 2.88459 0
66.3292 -2.97602 0
67.8452 -0.787069 0
66.0674 -2.98121 0
67.5713 -1.45924 0
67.8962 -0.503857 0
65.7288 -2.05059 0
66.6163 3.60904 0
68.0481 1.32406 0
67.3855 2.32599 0
66.0783 -1.82486 0
68.0624 -0.78269 0
65.6157 -1.71134 0
65.7614 2.62678 0
68.1255 0.668922 0
66.0134 2.5 0
66.2365 2.03101 0
67.8628 0.0935328 0
65.698 2.15745 0
66.4836 -1.08937 0
68.1048 -1.14345 0
65.9515 -0.982332 0
65.1176 -0.640892 0
67.8816 -0.869668 0
65.2878 -0.533488 0
67.7094 0.801045 0
68.0433 0.16519 0
67.1418 1.71411 0
65.6227 1.6979 0
68.1497 0.118713 0
65.1923 1.10651 0
68.0713 -0.34781 0
67.8428 -0.244681 0
65.1705 -0.179686 0
65.5173 -0.0556926 0
68.0792 -0.176044 0
67.1274 0.202701 0
65.7752 0.371038 0
67.9792 -0.154179 0
68.1342 -4.08186 0
67.7732 -1.14393 0
67.7448 0.283801 0
69.0551 4.8743 0
69.9281 -5.45992 0
72.0534 -0.824211 0
70.1762 0.865685 0
72.316 6.0019 0
67.917 0.706725 0
66.277 3.44882 0
65.8236 -2.05155 0
67.6703 -0.512204 0
67.7648 -1.39396 0
68.128 -2.69574 0
67.7944 1.59389 0
68.0158 0.517316 0
68.1212 -0.0103376 0
65.5652 1.47582 0
68.8165 0.399192 0
68.161 1.43866 0
68.3253 -1.17252 0
69.9725 -0.630329 0
75.8199 -0.967849 0
75.6771 -5.86556 0
77.1647 5.58797 0
75.4681 0.364715 0
67.9986 1.59176 0
70.4551 5.55928 0
69.3931 -5.04575 0
68.9834 -1.87005 0
67.7396 -1.22126 0
66.3385 -0.171517 0
67.5501 4.12913 0
68.0911 1.65035 0
68.055 -1.66622 0
66.3949 -3.34797 0
80.1139 -3.14508 0
77.2774 -0.442394 0
77.2647 0.584037 0
80.0429 2.52852 0
67.7949 -1.61905 0
67.6997 -0.100244 0
67.5971 0.400825 0
68.453 0.662859 0
73.1622 0.567543 0
72.8333 3.11396 0
71.1045 -1.6765 0
74.4126 -1.38121 0
71.8032 3.66109 0
74.8473 5.80983 0
73.955 -6.04338 0
72.5974 -1.53939 0
76.4582 1.23053 0
77.4593 3.62563 0
76.224 -2.08446 0
76.8873 -0.0386115 0
75.8216 0.0106076 0
78.3502 0.435957 0
77.6208 -1.34874 0
76.5874 0.0694368 0
74.366 0.00598145 0
75.5129 2.12459 0
75.4474 -2.28515 0
74.8349 -0.20684 0
68.6218 -1.21002 0
67.9272 -0.657584 0
68.066 1.28148 0
68.7149 0.802195 0
67.9717 1.50464 0
67.7559 0.615479 0
67.7533 -0.268175 0
67.9204 -1.6112 0
77.362 0.606767 0
78.1097 0.946989 0
77.3462 -0.597843 0
76.3258 -0.0847183 0
67.1823 -0.750675 0
68.1218 -0.427469 0
68.0402 -0.73433 0
67.9864 -1.00104 0
67.8895 0.490024 0
67.9477 1.69841 0
74.072 1.93476 0
73.8102 0.281782 0
74.1954 -0.0164538 0
73.5217 -1.99629 0
71.628 -0.0100046 0
70.8158 -2.34117 0
71.9445 1.508 0
70.4301 0.384958 0
68.295 2.98047 0
68.4251 5.1082 0
68.1861 -4.46679 0
68.4951 -2.44536 0
68.5238 -1.694 0
67.9602 -1.76696 0
68.4309 3.40342 0
68.2292 1.73968 0
75.0186 -0.315272 0
75.4003 -0.114601 0
74.8755 0.07944 0
75.3618 1.20607 0
70.1308 -3.92961 0
71.0748 -3.84195 0
70.538 3.49832 0
71.642 5.97466 0
69.2436 -3.04287 0
70.0914 -1.94535 0
69.9344 2.50196 0
68.8331 1.2708 0
73.0784 1.48332 0
72.8033 0.154388 0
73.3052 -0.00449795 0
72.0907 -1.16931 0
67.9586 1.00811 0
67.9388 0.0417176 0
74.2254 -0.291427 0
74.6965 -1.39272 0
74.5266 0.785079 0
74.012 0.114979 0
68.3615 -0.874475 0
68.0632 -1.43781 0
68.7447 1.42046 0
67.8779 1.17277 0
67.7938 -0.36915 0
67.7744 -1.31811 0
67.6438 0.813976 0
67.7361 0.315096 0
65.8697 1.21915 0
67.7735 1.17943 0
76.8582 -2.3214 0
79.4719 -4.13427 0
79.9431 3.71308 0
76.5942 1.74727 0
67.6714 -1.7013 0
66.3042 -2.08684 0
71.2138 0.189286 0
71.4828 0.90223 0
70.2192 0.110372 0
70.9038 0.897327 0
71.245 -0.748274 0
71.3076 -0.116612 0
70.491 -0.626375 0
70.445 -0.00843771 0
73.4913 -0.442496 0
73.1958 -1.06942 0
73.3996 0.610714 0
73.1714 -0.00629886 0
68.0251 0.436778 0
68.0755 1.04337 0
67.5191 0.33544 0
66.0333 0.578699 0
68.1611 -0.632714 0
67.8982 -0.41925 0
68.0446 0.316723 0
67.992 -0.83491 0
79.4776 -0.781451 0
77.7353 -0.979559 0
78.5045 1.23845 0
78.8646 -0.177369 0
67.5278 -0.141275 0
67.6831 -0.750939 0
67.6418 0.116196 0
67.7688 0.408326 0
72.1178 -0.223588 0
71.8694 -0.543774 0
72.3403 0.42524 0
71.5064 0.109076 0
70.1298 0.265345 0
70.1966 0.726904 0
70.3046 -0.669623 0
70.2029 -0.183638 0
68.0964 -1.07667 0
69.0862 -1.78139 0
68.4431 1.30015 0
68.067 1.19475 0
69.0371 2.27365 0
67.9521 1.57435 0
68.1194 -1.66049 0
68.6999 -2.18743 0
75.8995 0.275572 0
75.7791 1.7842 0
75.974 -2.04259 0
76.4229 -0.428639 0
68.0011 -1.50032 0
67.9891 -1.65767 0
67.9836 1.63985 0
67.8985 1.23835 0
70.1491 0.784742 0
69.9865 0.268947 0
70.1317 -0.141999 0
70.1807 -0.582041 0
75.2037 3.22099 0
77.1083 5.01205 0
76.6626 -5.79016 0
76.1617 -2.48578 0
66.6843 -2.47328 0
68.0574 -2.59359 0
74.861 -2.36186 0
75.4732 -0.891209 0
73.8506 0.409468 0
76.8515 2.31116 0
66.4578 3.28392 0
67.5819 1.9425 0
70.7866 -0.0409368 0
70.9055 -0.493585 0
70.9644 0.426412 0
70.8563 0.130062 0
77.1182 -0.188391 0
77.5225 -0.97751 0
77.892 1.32177 0
77.1879 0.18749 0
73.2067 1.18615 0
71.2738 0.304736 0
72.5287 -0.307477 0
73.2503 -2.408 0
74.3725 0.950012 0
74.2154 1.83691 0
74.3267 -2.24081 0
75.0405 -1.00696 0
72.2379 -2.90515 0
73.3318 -1.43728 0
72.5052 2.1686 0
75.1514 4.34554 0
69.7821 0.492885 0
69.7838 0.0966087 0
70.0425 -0.14415 0
69.8897 -0.425399 0
70.2484 -0.21904 0
70.3313 -0.00866048 0
70.3481 0.138658 0
70.2256 0.619759 0
69.5199 0.442464 0
69.2685 1.10502 0
69.5985 -0.984379 0
70.5972 -0.325247 0
71.3827 2.31932 0
69.5334 1.62059 0
69.0796 -2.27736 0
68.4555 -2.19865 0
75.9695 -0.0699848 0
76.0042 -0.0393893 0
76.4275 0.0995654 0
76.2783 -0.0814284 0
69.825 2.98227 0
70.1258 2.17803 0
68.8294 -0.711244 0
68.6129 -0.269986 0
68.4248 0.237152 0
69.2558 0.750049 0
67.5853 -0.706758 0
67.9495 -1.46723 0
79.6847 -1.75019 0
78.0982 -1.25702 0
78.4428 2.56158 0
79.925 1.84427 0
67.903 -1.71022 0
67.8771 -0.321808 0
67.7045 0.500744 0
67.8733 1.68039 0
67.7258 0.170064 0
67.772 0.922894 0
67.8839 -0.471555 0
68.032 -0.0166121 0
66.9157 -0.226597 0
65.1573 0.0984014 0
75.2193 2.53818 0
78.2056 2.01861 0
77.3495 -1.76007 0
78.0032 -3.389 0
67.9681 1.64505 0
67.8403 1.00514 0
67.8384 -0.0619424 0
68.1476 -0.136412 0
70.9563 4.84315 0
68.6126 3.02911 0
70.1385 -3.28207 0
70.0288 -5.6578 0
67.9813 0.967318 0
68.0477 0.980282 0
73.3538 0.802769 0
73.3224 1.62775 0
72.6732 -1.45426 0
73.4387 -0.360992 0
70.1174 -0.169802 0
70.1383 -0.101374 0
70.1363 0.110855 0
70.0435 0.612503 0
77.4432 -1.22089 0
77.9329 0.361398 0
76.4431 0.51557 0
77.6343 0.971499 0
68.1119 0.12881 0
67.6963 -1.35409 0
68.0062 1.62379 0
68.1928 1.58404 0
68.3834 -1.74141 0
67.897 -1.56359 0
68.0005 0.182287 0
68.1451 0.599333 0
71.7222 -4.11253 0
70.0542 -2.64142 0
69.6886 -1.76848 0