# vtk DataFile Version 3.0
Unstructured Grid for Triangles
ASCII
DATASET UNSTRUCTURED_GRID
POINTS 29612 DOUBLE
-0.000272397 1.23686e-05 0
-0.000295789 9.5838e-06 0
-0.000277865 -3.1235e-06 0
0.002024 0.0005 0
0.00203975 0.00049875 0
0.00205 0.0005 0
0.00203975 -0.00049875 0
0.002024 -0.0005 0
0.00205 -0.0005 0
0.0020295 0.0004975 0
0.0020295 -0.0004975 0
0.00201925 0.00049625 0
0.00201925 -0.00049625 0
-0.000529747 -0.000479887 0
-0.00055 -0.0005 0
-0.000524 -0.0005 0
-0.000505983 -0.000484325 0
-0.000498 -0.0005 0
-0.000472 -0.0005 0
-0.000483864 -0.000487761 0
-0.000446 -0.0005 0
-0.000459 -0.000484239 0
-0.000429453 -0.000424878 0
-0.000447486 -0.000420717 0
-0.000441829 -0.000436609 0
-0.000512578 -0.000462101 0
-0.000493078 -0.000453594 0
-0.00050706 -0.000439006 0
-0.000419243 -0.000477545 0
-0.000440307 -0.000471837 0
-0.00043691 -0.000486724 0
-0.000516129 -0.000420948 0
-0.000495355 -0.000415432 0
-0.000511646 -0.00040128 0
-0.000394697 -0.000481197 0
-0.000406302 -0.000455143 0
-0.000537257 -0.000388197 0
-0.000531099 -0.000407297 0
-0.000523982 -0.000388328 0
-0.000370063 -0.000472956 0
-0.000368 -0.0005 0
-0.00035308 -0.000485302 0
-0.0005072 -0.00037867 0
-0.000485506 -0.000383975 0
-0.000490949 -0.000359622 0
-0.000337127 -0.000484331 0
-0.000316 -0.0005 0
-0.000326495 -0.00047415 0
-0.00055 -0.00035 0
-0.000531201 -0.000370361 0
-0.000528367 -0.000346817 0
-0.000363898 -0.000448809 0
-0.000383315 -0.000460336 0
-3.26269e-05 -0.000415503 0
-5.99662e-05 -0.000409556 0
-5.46944e-05 -0.000429488 0
-0.000529747 0.000479887 0
-0.00055 0.0005 0
-0.00055 0.000475 0
-0.00055 0.00045 0
-0.000534834 0.000429171 0
-0.000526943 0.000442611 0
-0.000534026 0.000460176 0
-0.000531099 0.000407297 0
-0.000511672 0.000401178 0
-0.000516129 0.000420948 0
-0.000524 0.0005 0
-0.000505983 0.000484325 0
-0.000531201 0.000370361 0
-0.0005072 0.00037867 0
-0.000523982 0.000388328 0
-0.00048341 0.000469132 0
-0.000483679 0.000487539 0
-0.000528367 0.000346817 0
-0.00055 0.000325 0
-0.000525657 0.000328474 0
-0.000498 0.0005 0
-0.000530382 0.0003125 0
-0.000419243 0.000477545 0
-0.000440015 0.00047335 0
-0.000425917 0.000463678 0
-0.000435138 0.000262661 0
-0.000414982 0.000274462 0
-0.000435654 0.000285217 0
-0.000459 0.000484239 0
-0.000436852 0.000487027 0
-0.000446 0.0005 0
-0.000533308 0.000292503 0
-0.00055 0.000275 0
-0.000523377 0.000276953 0
-0.000425282 0.000446352 0
-0.000409368 0.000435728 0
-0.000406302 0.000455143 0
0.002009 0.000495 0
0.001998 0.0005 0
0.00199875 0.00049375 0
0.0019885 0.0004925 0
0.001972 0.0005 0
0.00197825 0.00049125 0
0.001968 0.00049 0
0.00195775 0.00048875 0
0.001946 0.0005 0
0.0019475 0.0004875 0
0.00193725 0.00048625 0
0.00192 0.0005 0
0.001927 0.000485 0
0.00191675 0.00048375 0
0.0019065 0.0004825 0
0.001894 0.0005 0
0.00189625 0.00048125 0
0.001886 0.00048 0
0.001868 0.0005 0
0.00187575 0.00047875 0
0.0018655 0.0004775 0
0.00185515 0.00048575 0
0.001842 0.0005 0
0.001845 0.000475 0
0.00185525 0.00047625 0
0.00182564 0.0004829 0
0.001816 0.0005 0
0.0018245 0.0004725 0
0.00183475 0.00047375 0
0.00181425 0.00047125 0
0.00180295 0.000482657 0
0.00179 0.0005 0
0.00179375 0.00046875 0
0.001804 0.00047 0
0.00178168 0.000480619 0
0.001764 0.0005 0
0.00177325 0.00046625 0
0.0017835 0.0004675 0
0.00176428 0.000476631 0
0.001763 0.000465 0
0.001738 0.0005 0
0.001751 0.000484164 0
0.00175275 0.00046375 0
0.00174025 0.000475632 0
0.001712 0.0005 0
0.00172615 0.000478449 0
0.001722 0.00046 0
0.00173225 0.00046125 0
0.0017015 0.0004575 0
0.00171243 0.00047381 0
0.00169554 0.000479999 0
0.001686 0.0005 0
0.00167507 0.000479751 0
0.00168498 0.000464861 0
0.00166 0.0005 0
0.0016558 0.000471459 0
0.00167135 0.000462887 0
0.001681 0.000455 0
0.0016605 0.0004525 0
0.00167075 0.00045375 0
0.00164059 0.000461599 0
0.0016394 0.000479551 0
0.00162881 0.00046615 0
0.00162975 0.00044875 0
0.00165025 0.00045125 0
0.00164 0.00045 0
0.00161754 0.000458641 0
0.00161722 0.000478101 0
0.00159956 0.000458294 0
0.00160925 0.00044625 0
0.0016195 0.0004475 0
0.00157667 0.000460322 0
0.00158875 0.00044375 0
0.00159194 0.000480155 0
0.001599 0.000445 0
0.0015785 0.0004425 0
0.00155808 0.000456757 0
0.00155647 0.000476701 0
0.00154059 0.000466642 0
0.00153756 0.000450083 0
0.00154839 0.000450446 0
0.00156825 0.00044125 0
0.00151954 0.000480508 0
0.00154052 0.00048477 0
0.00153 0.0005 0
0.00154775 0.00043875 0
0.00152142 0.000456625 0
0.00152821 0.000445753 0
0.0015375 0.0004375 0
0.001504 0.0005 0
0.00149644 0.000485168 0
0.00151787 0.000443178 0
0.00152725 0.00043625 0
0.00150675 0.00043375 0
0.001517 0.000435 0
0.00148119 0.000450887 0
0.00148072 0.000475756 0
0.00146584 0.000463516 0
0.00150008 0.00046396 0
0.00149351 0.00044543 0
0.0015061 0.000446252 0
0.001476 0.00043 0
0.00148625 0.00043125 0
0.00146492 0.000482975 0
0.00144888 0.000473562 0
0.00146676 0.000444259 0
0.00145255 0.000453656 0
0.00145652 0.000438669 0
0.00141401 0.000479821 0
0.001426 0.0005 0
0.0014 0.0005 0
0.00144374 0.000438862 0
0.0014555 0.0004275 0
0.001435 0.000425 0
0.00144525 0.00042625 0
0.00142746 0.000438121 0
0.00141288 0.000443191 0
0.00141707 0.000432778 0
0.0013921 0.000438992 0
0.00140355 0.00045932 0
0.00138302 0.00045922 0
0.00142912 0.000458869 0
0.00140592 0.000430037 0
0.0014145 0.0004225 0
0.00136458 0.00045869 0
0.00137106 0.00044063 0
0.001394 0.00042 0
0.00138259 0.000428915 0
0.00137484 0.000477094 0
0.00139166 0.000478902 0
0.0013586 0.000478984 0
0.00133449 0.000478649 0
0.00134717 0.000461848 0
0.00137256 0.000425134 0
0.00135323 0.000424541 0
0.00136325 0.00041625 0
0.00136122 0.00042876 0
0.00131206 0.000447284 0
0.00133168 0.000456738 0
0.00131773 0.000465243 0
0.00134756 0.000440343 0
0.00132747 0.000436463 0
0.00133483 0.000426786 0
0.00131081 0.00041867 0
0.00132382 0.000422815 0
0.00131507 0.00043122 0
0.00131059 0.000480123 0
0.0013325 0.0004125 0
0.0012915 0.0004075 0
0.0012982 0.000418199 0
0.00128915 0.000426216 0
0.00126366 0.000447574 0
0.00127331 0.000430908 0
0.00128781 0.000444872 0
0.00125336 0.000428376 0
0.00130218 0.000431077 0
0.00127894 0.000416344 0
0.00124774 0.000469608 0
0.00127668 0.000464148 0
0.00126591 0.00048331 0
0.00126722 0.000418415 0
0.00125768 0.000411931 0
0.00124326 0.000413546 0
0.0012505 0.0004025 0
0.00122408 0.000450118 0
0.00120276 0.000447432 0
0.0012139 0.000432235 0
0.00124336 0.000444132 0
0.00123056 0.000427595 0
0.00122977 0.000409049 0
0.0012185 0.000469217 0
0.00122676 0.000485947 0
0.00120525 0.000486094 0
0.00121479 0.000413153 0
0.00119547 0.000424221 0
0.00120249 0.000407448 0
0.00119925 0.00039625 0
0.00119346 0.000406114 0
0.00117479 0.000447279 0
0.00114726 0.000445259 0
0.0011571 0.000427814 0
0.00119443 0.000466611 0
0.00117447 0.000421596 0
0.00118421 0.00040752 0
0.00117409 0.000404437 0
0.00116775 0.000470073 0
0.001179 0.0004855 0
0.00115473 0.000484802 0
0.0011685 0.0003925 0
0.00117875 0.00039375 0
0.00115454 0.000400551 0
0.001148 0.00039 0
0.00115825 0.00039125 0
0.00111703 0.000423398 0
0.00113786 0.000426731 0
0.00112589 0.000443871 0
0.00113234 0.000406671 0
0.00114754 0.000413371 0
0.001106 0.000442326 0
0.00109703 0.000424261 0
0.0011275 0.0003875 0
0.00113775 0.00038875 0
0.00110211 0.000480875 0
0.00108244 0.000471951 0
0.00109312 0.000458413 0
0.00111755 0.000399116 0
0.0010944 0.000392972 0
0.00110415 0.000405876 0
0.00108839 0.000407536 0
0.00106472 0.000476905 0
0.00107274 0.000457868 0
0.00108011 0.000392415 0
0.00106885 0.000404365 0
0.00106625 0.000388708 0
0.00105286 0.000419254 0
0.00105055 0.000395469 0
0.00104215 0.000439764 0
0.00106346 0.000440629 0
0.00100945 0.000451249 0
0.00102825 0.00045614 0
0.00101189 0.000468452 0
0.00107625 0.00038125 0
0.00105575 0.00037875 0
0.001066 0.00038 0
0.00103352 0.000476905 0
0.00101803 0.00048465 0
0.00103685 0.000389398 0
0.0010245 0.00038825 0
0.00103525 0.00037625 0
0.00101092 0.000399779 0
0.00101267 0.000382619 0
0.00101382 0.00042025 0
0.00103187 0.000405286 0
0.00103359 0.000424605 0
0.000987383 0.00045447 0
0.000999411 0.000435161 0
0.0009744 0.000433145 0
0.0010045 0.0003725 0
0.00101475 0.00037375 0
0.000970845 0.000465215 0
0.000952614 0.000467664 0
0.000961768 0.000449944 0
0.00099729 0.000387704 0
0.000978901 0.00039598 0
0.000985823 0.000381492 0
0.000962289 0.000393709 0
0.000974259 0.000381279 0
0.00097375 0.00036875 0
0.000963045 0.000376631 0
0.000958 0.0005 0
0.000932 0.0005 0
0.000947542 0.00048457 0
0.000949675 0.000385245 0
0.000936214 0.000389472 0
0.000940006 0.000374906 0
0.000966411 0.000412573 0
0.000944241 0.000407079 0
0.000903569 0.000424993 0
0.000921701 0.000402409 0
0.000927439 0.000427744 0
0.000889795 0.000409067 0
0.000903071 0.00040248 0
0.000925447 0.000377721 0
0.00093275 0.00036375 0
0.000907708 0.000387127 0
0.000911303 0.000370839 0
0.000911933 0.000455145 0
0.000930678 0.000473279 0
0.000911886 0.000482603 0
0.000887724 0.000388076 0
0.000899595 0.000375116 0
0.000902 0.00036 0
0.000889241 0.00036954 0
0.000836977 0.000459472 0
0.000836223 0.000483578 0
0.000820467 0.000474142 0
0.000871227 0.000403557 0
0.000861 0.000355 0
0.000868368 0.000365714 0
0.00085484 0.00036588 0
0.000847735 0.000402845 0
0.000823121 0.000421599 0
0.000826582 0.000398147 0
0.000846943 0.00042454 0
0.000838832 0.000378613 0
0.000835569 0.000363808 0
0.000844098 0.00036291 0
0.00085075 0.00035375 0
0.000851465 0.000477164 0
0.00083025 0.00035125 0
0.000822824 0.000368659 0
0.00081446 0.000357362 0
0.000805884 0.000371794 0
0.000753471 0.000477524 0
0.000738313 0.000473927 0
0.000739102 0.000461526 0
0.00079826 0.000358588 0
0.000788607 0.000376287 0
0.000781733 0.000357987 0
0.000816783 0.000384471 0
0.000807975 0.000404095 0
0.000752138 0.000404775 0
0.000767682 0.000417043 0
0.000749617 0.000421803 0
0.000752903 0.000384008 0
0.000738293 0.000393136 0
0.000772614 0.000394048 0
0.00076863 0.000371878 0
0.000765995 0.000354121 0
0.000779 0.000345 0
0.00071811 0.000453059 0
0.000738069 0.000437967 0
0.000752085 0.000365972 0
0.000728123 0.000374583 0
0.000741845 0.000354664 0
[...]
CELL_DATA 58684
VECTORS velocity DOUBLE
65.0454 0.315909 0
69.5812 -0.000822896 0
69.5658 0.000196594 0
69.5882 -0.0156259 0
69.5753 0.0191903 0
69.5827 -0.00847203 0
69.5674 0.00734212 0
67.6944 -0.0245549 0
67.6569 -0.0794302 0
67.6983 -0.0209535 0
67.7889 -0.0271678 0
67.8307 -0.829736 0
67.651 -0.370616 0
67.9147 -0.24392 0
67.6472 -0.617188 0
68.0954 -0.27789 0
67.7224 -0.382702 0
68.2195 -0.162081 0
67.7269 -0.954574 0
68.4587 -0.124603 0
67.8039 -0.338255 0
68.2447 -0.407505 0
70.6465 -1.60539 0
67.7448 0.0429995 0
67.6766 0.209197 0
67.7502 0.0992183 0
67.6929 0.492577 0
67.6559 0.0767374 0
67.7393 0.6213 0
67.7146 0.156134 0
67.8195 0.430935 0
67.6528 0.0974153 0
67.6387 0.418101 0
68.0144 0.303637 0
67.8588 1.78064 0
67.8442 0.143669 0
67.8999 0.433294 0
68.0557 0.581297 0
69.606 0.0033414 0
69.6146 -0.00682632 0
69.6083 -0.029587 0
69.6054 -0.021893 0
69.6077 -0.0161789 0
69.607 -0.0427952 0
69.587 -0.0609308 0
69.5679 -0.0627443 0
69.5562 -0.0299951 0
69.5423 -0.0836423 0
69.514 -0.0913708 0
69.4668 -0.0440687 0
69.4663 -0.107318 0
69.4161 -0.130945 0
69.3769 -0.127154 0
69.3183 -0.061359 0
69.285 -0.141164 0
69.2362 -0.136952 0
69.1406 -0.0686606 0
69.1241 -0.161123 0
69.0565 -0.163443 0
68.9845 -0.135991 0
68.9222 -0.0534851 0
68.9377 -0.196433 0
68.7826 -0.163432 0
68.726 -0.0528087 0
68.7479 -0.2374 0
68.6958 -0.253619 0
68.6446 -0.211112 0
68.5711 -0.0523666 0
68.5589 -0.25875 0
68.5104 -0.210273 0
68.4296 -0.0527758 0
68.4418 -0.263592 0
68.4049 -0.224872 0
68.3908 -0.28321 0
68.2881 -0.0459519 0
68.2759 -0.208217 0
68.272 -0.128577 0
68.1821 -0.054261 0
68.2017 -0.263359 0
68.1354 -0.212877 0
68.1688 -0.218356 0
68.1036 -0.0401987 0
68.0728 -0.110185 0
68.0882 -0.246298 0
68.0659 -0.118313 0
68.0652 -0.177227 0
68.1076 -0.258164 0
68.1003 -0.269079 0
68.0565 -0.135888 0
68.0993 -0.186699 0
68.0565 -0.196139 0
68.0863 -0.223275 0
68.0991 -0.115398 0
68.0959 -0.141767 0
68.115 -0.186002 0
68.2224 -0.13365 0
68.143 -0.106762 0
68.1719 -0.148722 0
68.237 -0.162146 0
68.283 -0.112078 0
68.4112 -0.0858481 0
68.2857 -0.100378 0
68.4761 -0.0216697 0
68.4178 -0.098481 0
68.55 -0.0872359 0
68.478 -0.0847448 0
68.6645 -0.0396548 0
68.5579 -0.0741694 0
68.6295 -0.0704215 0
68.87 -0.0585773 0
68.8306 -0.0577823 0
68.7125 -0.0744252 0
68.8349 -0.096045 0
68.9927 -0.0597394 0
68.9957 -0.104717 0
69.0246 -0.0742986 0
69.1909 -0.0141719 0
68.9855 -0.134611 0
69.029 -0.174302 0
69.1135 -0.177615 0
69.1334 -0.195383 0
69.1755 -0.125177 0
69.0906 -0.237181 0
69.0842 -0.2163 0
69.0929 -0.326365 0
69.1524 -0.128467 0
69.0891 -0.28614 0
68.9439 -0.156003 0
69.0875 -0.328765 0
68.9788 -0.387744 0
68.7229 -0.241931 0
68.8573 -0.37414 0
68.7997 -0.20384 0
68.7141 -0.403599 0
68.7084 -0.161746 0
68.8001 -0.431428 0
68.5188 -0.40212 0
68.3002 -0.282082 0
68.1941 -0.265196 0
68.4876 -0.330477 0
68.3977 -0.362051 0
68.1142 -0.105419 0
68.2327 -0.323368 0
68.2015 -0.336174 0
67.8686 -0.114782 0
67.9447 -0.138977 0
68.093 -0.268904 0
68.0331 -0.247154 0
67.7567 -0.0443049 0
67.9163 -0.146831 0
67.96 -0.12232 0
67.8495 0.0369552 0
67.754 -0.037542 0
67.8802 -0.0429324 0
67.8916 -0.0442179 0
67.7179 0.0210159 0
67.9508 -0.0481534 0
68.0065 0.0229907 0
68.0522 0.0707047 0
67.9977 0.0691129 0
68.2581 0.0690503 0
68.1013 0.0929481 0
68.3909 0.0680906 0
68.1437 0.118761 0
68.4053 0.128063 0
68.6659 0.0205255 0
68.693 0.0912791 0
68.8988 0.076344 0
68.9638 0.0930422 0
69.5797 -0.00505038 0
68.676 0.129079 0
68.8116 0.112372 0
69.5106 0.0117484 0
69.2492 0.0675012 0
69.5459 -0.00739739 0
69.3191 0.00843724 0
69.8699 -0.0116302 0
70.0846 -0.0682927 0
69.5817 0.00558505 0
70.5015 -0.0440612 0
70.0385 -0.038618 0
70.2452 -0.0921557 0
70.2599 -0.118357 0
70.7631 0.0257648 0
70.7865 -0.181917 0
70.4587 -0.123114 0
71.1357 -0.170921 0
71.3916 -0.256502 0
70.9128 -0.231676 0
71.215 -0.276365 0
71.2344 -0.0474953 0
71.3907 -0.312728 0
71.4116 -0.374036 0
71.4963 -0.373071 0
71.9584 -0.106505 0
71.5836 -0.322968 0
71.7733 -0.469184 0
71.9755 -0.405511 0
71.8991 -0.336089 0
71.9001 -0.549883 0
71.8379 -0.517041 0
71.9633 -0.0894924 0
71.8956 -0.617837 0
71.8938 -0.590847 0
71.6415 -0.206273 0
71.8362 -0.705119 0
71.9514 -0.475967 0
71.6866 -0.517108 0
71.6117 -0.678709 0
71.7798 -0.664245 0
71.6983 -0.792351 0
71.4712 -0.335011 0
71.3767 -0.828284 0
71.5294 -0.889076 0
71.1705 -1.01191 0
71.0322 -0.0617399 0
71.2159 -0.854344 0
71.1264 -1.06999 0
71.2719 -0.297203 0
71.0259 -1.11868 0
70.8929 -0.772665 0
70.9841 -1.13357 0
70.5767 -0.495538 0
70.6571 -1.12764 0
70.7427 -1.24381 0
70.7308 -0.24986 0
70.6582 -1.29055 0
70.5209 -1.33688 0
70.5654 -1.14123 0
70.5217 -0.814046 0
70.527 -1.45351 0
70.4009 -0.698574 0
70.5226 -0.110644 0
70.4268 -1.25705 0
70.503 -1.44604 0
70.572 -1.51194 0
70.4872 -0.580372 0
70.5394 -1.36667 0
70.6874 -1.4578 0
70.6741 -0.197577 0
70.8102 -1.41794 0
70.7376 -1.53651 0
70.6385 -1.24081 0
70.8021 -0.6596 0
70.9073 -0.76884 0
70.8746 -1.53653 0
71.4718 0.00631698 0
70.9832 -1.6024 0
71.1428 -1.54287 0
71.0818 -1.61313 0
71.9112 -0.533726 0
71.3846 -1.42669 0
71.612 -1.48616 0
72.3418 0.00818903 0
71.7121 -1.71451 0
72.1868 -1.69085 0
71.8556 -1.17018 0
72.1917 -0.640378 0
72.0081 -1.77963 0
72.3744 -0.7912 0
73.196 -0.125871 0
72.2579 -1.48578 0
72.3924 -1.84477 0
72.6855 -1.85049 0
73.3002 -0.459949 0
73.2383 -1.67839 0
72.8472 -1.88742 0
73.6006 -0.262569 0
73.1296 -2.10107 0
73.5131 -2.15446 0
73.8088 -1.36041 0
73.7715 -0.013352 0
73.9434 -2.16967 0
74.1967 -0.850497 0
74.4512 -0.906194 0
74.0655 -1.98233 0
74.0671 -1.58365 0
74.698 -1.98556 0
73.9665 -0.292551 0
74.561 -2.17047 0
74.8555 -1.43052 0
75.2429 -1.76924 0
73.8325 -0.0927219 0
75.6696 -1.03126 0
75.5791 -0.73754 0
73.1207 0.0621633 0
75.8683 -1.5913 0
76.1925 -0.905473 0
74.2289 0.239217 0
73.7945 -0.00413843 0
75.1123 -0.530864 0
76.2823 -0.331283 0
73.2885 0.127367 0
76.0821 0.489502 0
76.3564 -0.40913 0
76.3688 -0.15831 0
72.8476 0.779159 0
75.1435 0.915282 0
76.2568 0.837857 0
72.7907 0.118149 0
76.0529 1.30579 0
75.9198 1.49054 0
75.1439 2.90226 0
71.2602 0.267416 0
76.0732 2.42692 0
74.3531 1.79641 0
72.4809 0.947148 0
72.3956 1.99059 0
75.8826 2.81306 0
75.1227 3.51446 0
71.625 0.434358 0
75.007 4.01829 0
69.59 -0.00215657 0
69.5979 0.00623729 0
69.5893 0.0275411 0
69.5867 0.0217538 0
69.59 0.0160682 0
69.5888 0.0422185 0
69.569 0.0594502 0
69.5546 0.0596704 0
69.5416 0.0305178 0
69.5263 0.0800955 0
69.4986 0.08323 0
69.4478 0.0438731 0
69.4482 0.10808 0
69.3954 0.13014 0
69.3558 0.122335 0
69.2951 0.0609361 0
69.2618 0.143208 0
69.2151 0.137305 0
69.1198 0.068264 0
69.1001 0.155262 0
69.0348 0.160282 0
68.9609 0.205958 0
68.9633 0.134777 0
68.8783 0.134412 0
68.7727 0.230849 0
68.7594 0.16382 0
68.6781 0.246211 0
68.6228 0.208431 0
68.5865 0.250105 0
68.6276 0.117924 0
68.4839 0.20686 0
68.4676 0.266168 0
68.4814 0.114832 0
68.3652 0.276748 0
68.3314 0.264918 0
68.3087 0.20547 0
68.3649 0.13948 0
68.2523 0.205288 0
68.2053 0.202186 0
68.2486 0.126251 0
68.1468 0.288787 0
68.089 0.117914 0
68.111 0.207273 0
68.1425 0.145004 0
68.0647 0.239561 0
68.0802 0.249462 0
68.0389 0.115634 0
68.0494 0.211722 0
68.0684 0.239822 0
68.0439 0.236122 0
68.0584 0.103213 0
68.0301 0.129658 0
68.068 0.177812 0
68.0992 0.215051 0
68.0886 0.0841595 0
68.1286 0.152567 0
68.14 0.172478 0
68.187 0.0744335 0
68.1116 0.100042 0
68.2047 0.156146 0
68.2131 0.124253 0
68.2875 0.0547081 0
68.3425 0.0410172 0
68.375 0.0710008 0
68.1107 0.048588 0
68.4402 0.0717376 0
68.5981 0.054555 0
68.5366 0.0589259 0
68.4951 0.0424423 0
68.6706 0.0559532 0
68.7088 0.0468032 0
68.9531 0.0561777 0
68.6772 0.0624642 0
68.8345 0.0752519 0
68.8939 0.106173 0
68.8096 0.0212534 0
68.9258 0.0785501 0
68.988 0.160012 0
68.9871 0.0681736 0
69.0214 0.150525 0
69.0478 0.242586 0
69.1004 0.177541 0
69.1367 0.0734256 0
69.0721 0.24667 0
69.0598 0.279336 0
69.0996 0.0612211 0
69.0117 0.341793 0
69.0687 0.254824 0
68.9591 0.317329 0
69.0502 0.204871 0
68.9302 0.374937 0
68.7096 0.43429 0
68.6371 0.155135 0
68.7965 0.299318 0
68.6193 0.438601 0
68.6057 0.35222 0
68.7422 0.195149 0
68.535 0.431383 0
68.3953 0.396691 0
68.1853 0.115007 0
68.0564 0.16879 0
68.1812 0.303634 0
68.2397 0.371854 0
68.2059 0.217244 0
68.117 0.311096 0
68.0423 0.270906 0
67.6814 0.0448282 0
67.8617 0.160931 0
67.901 0.181703 0
67.8182 0.118021 0
67.7365 0.0417525 0
67.811 0.0938856 0
67.8288 0.0214861 0
67.6872 -0.0380921 0
67.7612 0.0484941 0
67.88 -0.00676002 0
67.808 -0.0663265 0
67.5994 0.00133166 0
67.9193 -0.0730184 0
68.0689 -0.117485 0
67.8278 -0.054138 0
68.0779 -0.155916 0
68.1421 -0.106155 0
68.2457 -0.113861 0
68.0335 -0.0876317 0
68.2748 -0.150308 0
68.5268 -0.163367 0
68.5206 -0.0274903 0
68.5232 -0.126604 0
68.841 -0.121468 0
69.2434 -0.0430502 0
68.4631 -0.10859 0
68.9992 -0.0604641 0
69.0966 -0.0961796 0
69.0728 0.0130864 0
69.2674 -0.0627804 0
69.6368 -0.0127271 0
69.7832 0.0329934 0
69.9224 0.0043206 0
70.1515 0.118081 0
69.5885 -0.00724276 0
69.3464 -0.00794635 0
69.9694 0.0628879 0
70.3813 0.135346 0
70.4774 0.175798 0
69.7991 -0.0491697 0
70.8187 0.257469 0
70.8936 0.245948 0
71.1903 0.323397 0
71.224 0.142246 0
71.5159 0.174563 0
71.1075 0.325676 0
70.7017 0.0603252 0
71.4221 0.395936 0
71.469 0.41655 0
71.5584 0.409961 0
71.589 0.138799 0
71.6365 0.473769 0
71.7111 0.586748 0
71.7831 0.263552 0
71.7072 0.24139 0
71.7562 0.517396 0
71.6931 0.68736 0
71.637 0.132423 0
71.7126 0.730392 0
71.6314 0.783668 0
71.7744 0.173314 0
71.49 0.93303 0
71.4248 0.939375 0
71.2326 0.86658 0
71.5285 0.43463 0
71.6192 0.453032 0
71.356 0.936418 0
71.7489 0.294306 0
71.17 1.08861 0
71.0294 1.1071 0
70.9744 1.10522 0
71.3006 0.19383 0
70.7392 1.28913 0
70.6773 1.33299 0
70.8864 0.820191 0
70.6927 1.13391 0
70.8832 0.747424 0
70.6246 1.32579 0
71.091 0.441735 0
70.525 1.52574 0
70.477 1.53434 0
70.9146 0.326654 0
70.4381 1.44559 0
70.4567 1.60524 0
70.4403 1.58304 0
70.4876 0.440996 0
70.6526 1.68713 0
70.6922 1.76218 0
70.4706 1.23581 0
70.5046 1.42248 0
70.4619 0.816319 0
70.8533 1.85183 0
70.4366 0.254233 0
70.8998 1.80121 0
70.8888 1.73337 0
70.3909 0.207311 0
70.7356 1.59455 0
71.2673 1.80061 0
71.3911 1.78492 0
70.8979 0.550359 0
71.4965 1.75814 0
71.5875 1.87426 0
70.7108 1.26448 0
71.8317 1.33221 0
71.2656 0.522813 0
71.8584 1.8864 0
71.5077 0.182566 0
72.0983 1.84255 0
72.2673 1.84191 0
71.0776 0.133521 0
72.2162 1.64041 0
72.7547 1.91151 0
73.0801 1.90024 0
72.1637 0.420993 0
72.8987 1.82864 0
73.3726 2.06584 0
72.4565 1.43728 0
73.7746 1.4603 0
72.68 0.359106 0
73.1816 1.85781 0
73.1419 0.146747 0
73.8772 2.12347 0
74.021 1.97667 0
72.7079 0.125976 0
74.108 1.66662 0
74.397 1.88617 0
74.782 1.85523 0
73.91 0.230567 0
75.0321 1.81022 0
75.1587 1.63642 0
74.1684 0.384342 0
75.276 1.77092 0
75.0261 0.910592 0
73.9934 0.684485 0
73.7097 0.477608 0
75.5617 1.58979 0
75.5971 1.02879 0
76.0189 1.07622 0
73.8734 0.0136352 0
75.7072 0.532104 0
76.2314 0.434192 0
73.978 0.0878355 0
75.4918 0.479973 0
76.3933 -0.0804233 0
75.3222 -0.153073 0
74.0922 0.0593051 0
76.341 -0.42845 0
76.3517 -0.769899 0
74.918 0.313786 0
75.0425 -1.32907 0
73.3235 -1.53867 0
76.0979 -0.980874 0
73.2925 -0.152701 0
76.209 -1.69085 0
74.3242 4.62257 0
74.9082 3.9866 0
70.6292 1.4651 0
74.2513 4.64554 0
72.5443 4.6028 0
73.6567 5.17781 0
70.8923 0.562253 0
72.9895 5.43896 0
72.1863 5.53211 0
70.223 0.748715 0
72.2121 5.77593 0
76.1478 -2.10107 0
73.4544 -0.0689015 0
75.9878 -2.42179 0
75.0403 -2.96939 0
74.5225 -2.537 0
72.8709 -0.142326 0
75.2414 -3.39701 0
71.3505 5.51541 0
74.6891 -4.38531 0
72.8254 -0.85363 0
74.4685 -4.29665 0
73.6813 -5.03427 0
69.789 1.81261 0
73.4362 -5.0358 0
74.3501 -2.50367 0
73.9188 -4.50414 0
72.3521 -3.53636 0
71.2793 -0.610083 0
73.1652 -4.71123 0
72.5969 -5.08527 0
70.9591 5.77463 0
72.6361 -5.09285 0
71.8782 -0.302807 0
71.9008 -5.42369 0
71.5096 -5.86569 0
70.8406 -0.412858 0
70.8137 -6.02321 0
71.0215 -4.54082 0
69.7774 -0.531763 0
70.2184 -6.12105 0
70.1273 -3.60155 0
70.9582 -2.78184 0
70.5595 -5.35484 0
69.8753 -5.62204 0
71.3413 3.15893 0
69.5328 0.448018 0
70.8039 2.19802 0
70.0389 -0.0709907 0
69.592 -5.98861 0
70.7901 5.53277 0
69.5026 0.314914 0
70.2937 4.81498 0
69.1014 -5.96576 0
69.8552 -1.3113 0
68.8713 -4.52679 0
70.3424 6.1828 0
69.1442 1.80048 0
70.3215 6.12145 0
69.151 5.3572 0
69.2411 0.350565 0
69.504 5.56055 0
69.0688 -4.65855 0
69.7475 -0.368281 0
68.6231 -6.09311 0
68.6907 -5.91966 0
69.6554 5.90419 0
68.6552 5.74881 0
69.0055 0.0506583 0
69.1699 5.888 0
68.4814 4.03328 0
68.9863 2.06727 0
68.0862 -6.04432 0
69.1021 -0.933947 0
68.3091 -5.94796 0
67.8271 5.9961 0
67.8149 -5.64603 0
68.7449 -0.996503 0
68.5587 -2.96863 0
67.2068 -5.44246 0
69.0998 -3.23738 0
67.1129 -5.28375 0
68.551 -0.296699 0
66.5696 -5.08113 0
68.3888 2.61508 0
68.6601 0.433855 0
67.7544 5.23573 0
68.4663 0.124297 0
67.426 5.93404 0
67.4253 5.64725 0
68.305 0.198875 0
67.117 5.07115 0
68.2501 0.158926 0
67.5252 -4.85033 0
68.5509 -0.550445 0
68.2783 4.61332 0
67.8603 1.65621 0
66.9716 4.81556 0
66.5587 -5.06976 0
68.6481 -0.2226 0
65.5461 -4.33286 0
67.8808 -1.02897 0
66.1342 -4.38639 0
68.0839 2.32128 0
67.8027 0.166403 0
68.0855 -4.10756 0
67.7783 -0.300692 0
65.7484 -4.11479 0
66.6479 4.41765 0
66.9416 -3.37675 0
67.7805 -0.637469 0
66.0869 -3.61105 0
67.6872 2.70048 0
66.2689 1.60144 0
66.4244 3.90085 0
67.7167 -1.46265 0
65.9212 -3.89682 0
67.6911 0.882127 0
66.0782 4.96485 0
67.601 -2.03936 0
67.7958 -0.119901 0
65.7809 -3.58156 0
66.0588 4.5416 0
67.8335 1.53351 0
66.2532 3.69439 0
66.0233 3.59944 0
67.8289 0.761668 0
65.5395 3.22007 0
65.1286 -3.1143 0
67.7887 -0.526329 0
64.882 -3.13273 0
66.8958 -1.53936 0
67.8507 -0.21251 0
64.6359 -2.14229 0
65.4142 3.93989 0
67.8175 1.27673 0
66.6213 2.65994 0
65.0865 -1.91524 0
67.8543 -0.595856 0
64.5519 -1.77638 0
64.6301 2.89984 0
67.934 0.531844 0
64.9648 2.78158 0
65.2587 2.29359 0
67.8249 0.0167306 0
64.6272 2.40435 0
65.6226 -1.13586 0
67.8203 -1.05214 0
65.0183 -1.0092 0
64.0559 -0.614441 0
67.2645 -0.810204 0
64.2524 -0.506368 0
67.0489 0.857273 0
67.8991 0.0991182 0
66.3596 1.96275 0
64.5761 1.90463 0
67.8417 0.132299 0
64.1253 1.26584 0
67.5272 -0.297895 0
67.823 -0.0276994 0
64.1329 -0.122042 0
64.5363 0.0114404 0
67.9434 -0.0770399 0
66.3545 0.275696 0
64.8246 0.466754 0
67.8926 -0.0205814 0
66.8543 -4.3605 0
67.7824 -1.19529 0
67.7484 0.215372 0
67.1556 5.18468 0
67.4732 -5.63519 0
69.3937 -0.76885 0
68.8822 0.92604 0
68.9608 6.14988 0
67.7929 0.479329 0
65.04 3.76145 0
64.7717 -2.16543 0
67.6548 -0.322338 0
67.7204 -1.41198 0
67.3327 -2.99764 0
67.7879 1.74256 0
67.975 0.346028 0
67.964 0.000653891 0
64.5537 1.67166 0
68.4104 0.448036 0
68.0391 1.61904 0
68.1875 -1.35623 0
68.7761 -0.652702 0
70.9007 -0.935306 0
71.1535 -5.88258 0
72.4634 5.50052 0
70.6803 0.338077 0
67.661 1.67306 0
67.8402 5.79096 0
67.3593 -5.21776 0
68.3766 -2.15022 0
67.0984 -1.22208 0
65.473 -0.115276 0
66.1543 4.46467 0
67.8611 1.80077 0
67.7787 -1.74928 0
65.2061 -3.54947 0
75.7607 -2.9194 0
72.6735 -0.39647 0
72.4149 0.485561 0
76.0964 1.91331 0
67.7856 -1.74536 0
67.7346 -0.160506 0
67.6457 0.528502 0
68.3115 0.762489 0
69.6932 0.604624 0
69.5939 3.12845 0
69.1137 -1.69719 0
70.1052 -1.32972 0
69.1365 3.75674 0
70.6313 5.83644 0
69.9443 -6.09291 0
69.4809 -1.50041 0
71.4381 1.14755 0
72.546 3.46265 0
71.254 -2.00879 0
71.9235 -0.0140882 0
74.0142 0.149802 0
76.1232 0.844182 0
75.3834 -1.86846 0
73.4558 -0.0185478 0
73.2221 -0.000879486 0
74.1001 2.08054 0
73.6239 -2.03818 0
73.6287 -0.275608 0
68.3508 -1.38183 0
68.0373 -0.76564 0
68.042 1.46708 0
68.4017 0.90257 0
67.9637 1.66371 0
67.7759 0.627674 0
67.7625 -0.331663 0
67.9008 -1.74901 0
73.3426 0.4014 0
74.4865 0.485496 0
73.6644 -0.391965 0
73.6289 -0.0152246 0
66.4088 -0.755011 0
67.9956 -0.242294 0
67.5609 -0.676712 0
67.8939 -0.740801 0
67.8372 0.222449 0
67.7996 1.7927 0
72.3987 1.8405 0
71.8078 0.298564 0
72.7144 0.0053781 0
71.65 -1.60936 0
69.3244 -0.044639 0
69.0635 -2.42515 0
69.3353 1.45278 0
68.9547 0.421283 0
67.5041 3.36392 0
66.5148 5.43129 0
66.6543 -4.69751 0
67.9073 -2.73698 0
68.1905 -1.91917 0
67.4744 -1.9037 0
67.4397 3.82076 0
67.898 1.99057 0
73.7614 -0.397251 0
73.8341 -0.190862 0
73.8488 0.127568 0
74.1166 1.31259 0
68.2249 -4.18573 0
68.7404 -4.02216 0
68.7115 3.70513 0
68.533 6.14126 0
68.1464 -3.37575 0
68.8222 -2.11935 0
68.6347 2.73871 0
68.4128 1.45173 0
71.1966 1.88004 0
70.6264 0.288808 0
71.105 -0.00252762 0
70.6216 -1.51727 0
67.4116 1.00378 0
67.8754 -0.00509314 0
72.77 -0.25734 0
73.0716 -1.20195 0
73.209 0.773727 0
72.299 0.116562 0
68.2562 -0.988453 0
68.0212 -1.57984 0
68.3909 1.63873 0
67.9874 1.35584 0
67.8247 -0.4376 0
67.8901 -1.49609 0
67.7279 0.947225 0
67.7437 0.329309 0
64.9151 1.40878 0
67.1545 1.28317 0
71.8413 -2.26145 0
74.7173 -4.00403 0
75.496 3.26265 0
71.6255 1.61743 0
67.0225 -1.82762 0
65.3332 -2.23303 0
70.6763 0.295167 0
70.4407 1.53997 0
71.6474 0.136007 0
70.7851 1.3173 0
70.5771 -1.31683 0
70.5479 -0.281104 0
71.3479 -0.970133 0
71.2946 -0.0477954 0
71.3649 -0.40291 0
71.1256 -1.01817 0
71.1825 0.747827 0
70.9462 0.00944388 0
67.9142 0.182089 0
67.7497 1.00531 0
66.7781 0.395461 0
65.1275 0.706626 0
67.9553 -0.483699 0
67.8237 -0.147791 0
67.4789 0.33593 0
67.4189 -0.752603 0
76.3461 -0.4129 0
73.7117 -0.776078 0
74.6766 0.763478 0
76.1452 -0.951521 0
67.6924 -0.172061 0
67.8441 -0.888746 0
67.6903 0.18168 0
67.965 0.488178 0
70.4678 -0.38321 0
70.4657 -0.932195 0
70.5048 0.718222 0
70.5258 0.266834 0
71.8348 0.20954 0
71.6908 0.630618 0
71.8999 -0.653002 0
71.9947 -0.185503 0
68.1253 -1.2384 0
68.5211 -1.98976 0
68.1917 1.53281 0
68.0486 1.38985 0
68.3326 2.62295 0
67.5322 1.68161 0
67.8746 -1.80715 0
68.1516 -2.48599 0
74.4284 0.494495 0
74.3988 1.85657 0
74.0453 -2.01837 0
74.5527 -0.810375 0
67.6422 -1.45502 0
67.6854 -1.6653 0
67.7371 1.67562 0
67.3836 1.25288 0
71.6497 0.527566 0
71.3681 0.12421 0
71.6986 -0.0899199 0
71.7346 -0.430327 0
70.7707 3.15673 0
72.4203 4.95169 0
71.9229 -5.77045 0
71.2821 -2.44512 0
65.7052 -2.66335 0
67.3362 -2.92767 0
70.4429 -2.29595 0
70.6719 -0.827863 0
69.956 0.361521 0
71.8602 2.14159 0
65.3115 3.62176 0
66.9185 2.24135 0
70.8166 -0.12735 0
70.7682 -0.915244 0
70.7875 0.685844 0
70.8685 0.130014 0
72.9458 -0.183727 0
72.9087 -0.862542 0
73.3731 1.04908 0
72.5188 0.162138 0
69.7707 1.1002 0
69.1878 0.302434 0
69.5219 -0.243771 0
69.6666 -2.35333 0
72.9606 0.951944 0
72.5634 1.72694 0
72.431 -1.72753 0
73.6313 -1.03258 0
69.3656 -2.96762 0
69.7397 -1.41664 0
69.5217 2.10642 0
70.8519 4.38368 0
70.527 0.165073 0
70.4478 0.0170661 0
71.344 -0.0850609 0
70.3701 -0.138665 0
71.9048 -0.223391 0
71.5319 -0.0406297 0
71.4506 0.146069 0
71.7209 0.584886 0
68.6822 0.469948 0
68.5959 1.23622 0
68.7168 -1.1144 0
69.0344 -0.28894 0
69.2525 2.34415 0
68.6944 1.85178 0
68.3054 -2.5887 0
67.978 -2.47528 0
74.0271 0.110254 0
73.8938 0.0489557 0
73.7399 -0.0482694 0
74.2794 -0.420275 0
68.4997 3.27759 0
68.8382 2.30253 0
68.3955 -0.788606 0
68.3289 -0.282895 0
68.3052 0.273118 0
68.5499 0.858587 0
66.8758 -0.688213 0
67.5222 -1.43029 0
76.0391 -1.44077 0
73.8997 -1.00679 0
73.7525 2.21584 0
76.3218 1.13054 0
67.8112 -1.78717 0
67.8544 -0.201058 0
67.6768 0.325729 0
67.8274 1.78852 0
67.9177 0.199349 0
67.9266 1.08163 0
68.0458 -0.571398 0
68.1346 -0.0369103 0
66.1171 -0.180456 0
64.1225 0.177315 0
70.6302 2.4138 0
73.5216 1.73468 0
72.4121 -1.66952 0
73.111 -3.30225 0
67.5445 1.79979 0
67.2574 1.02919 0
67.8115 0.00734712 0
67.8095 -0.084038 0
68.4904 5.09025 0
67.7574 3.43145 0
68.5726 -3.54423 0
67.4751 -5.82221 0
67.4554 0.965579 0
67.8391 0.872815 0
71.1781 0.971164 0
71.4312 1.84413 0
70.8929 -1.51006 0
71.2908 -0.342247 0
71.7566 -0.135559 0
71.9642 -0.0942303 0
71.8447 0.0727172 0
71.504 0.36411 0
75.2463 -1.67177 0
75.1299 -0.230617 0
74.7959 0.81524 0
75.7254 1.3182 0
67.6168 0.156962 0
67.0639 -1.40218 0
67.891 1.75445 0
68.0162 1.79322 0
68.0913 -1.96451 0
67.9308 -1.71282 0
67.9177 0.0504717 0
67.7319 0.601122 0
68.9706 -4.24881 0
68.7102 -2.81642 0
68.6908 -1.91359 0
69.0741 -1.03346 0
74.0193 -0.218425 0
75.264 -0.534453 0