# vtk DataFile Version 3.0
Unstructured Grid for Triangles
ASCII
DATASET UNSTRUCTURED_GRID
POINTS 29612 DOUBLE
-0.000272397 1.23686e-05 0
-0.000295789 9.5838e-06 0
-0.000277865 -3.1235e-06 0
0.002024 0.0005 0
0.00203975 0.00049875 0
0.00205 0.0005 0
0.00203975 -0.00049875 0
0.002024 -0.0005 0
0.00205 -0.0005 0
0.0020295 0.0004975 0
0.0020295 -0.0004975 0
0.00201925 0.00049625 0
0.00201925 -0.00049625 0
-0.000529747 -0.000479887 0
-0.00055 -0.0005 0
-0.000524 -0.0005 0
-0.000505983 -0.000484325 0
-0.000498 -0.0005 0
-0.000472 -0.0005 0
-0.000483864 -0.000487761 0
-0.000446 -0.0005 0
-0.000459 -0.000484239 0
-0.000429453 -0.000424878 0
-0.000447486 -0.000420717 0
-0.000441829 -0.000436609 0
-0.000512578 -0.000462101 0
-0.000493078 -0.000453594 0
-0.00050706 -0.000439006 0
-0.000419243 -0.000477545 0
-0.000440307 -0.000471837 0
-0.00043691 -0.000486724 0
-0.000516129 -0.000420948 0
-0.000495355 -0.000415432 0
-0.000511646 -0.00040128 0
-0.000394697 -0.000481197 0
-0.000406302 -0.000455143 0
-0.000537257 -0.000388197 0
-0.000531099 -0.000407297 0
-0.000523982 -0.000388328 0
-0.000370063 -0.000472956 0
-0.000368 -0.0005 0
-0.00035308 -0.000485302 0
-0.0005072 -0.00037867 0
-0.000485506 -0.000383975 0
-0.000490949 -0.000359622 0
-0.000337127 -0.000484331 0
-0.000316 -0.0005 0
-0.000326495 -0.00047415 0
-0.00055 -0.00035 0
-0.000531201 -0.000370361 0
-0.000528367 -0.000346817 0
-0.000363898 -0.000448809 0
-0.000383315 -0.000460336 0
-3.26269e-05 -0.000415503 0
-5.99662e-05 -0.000409556 0
-5.46944e-05 -0.000429488 0
-0.000529747 0.000479887 0
-0.00055 0.0005 0
-0.00055 0.000475 0
-0.00055 0.00045 0
-0.000534834 0.000429171 0
-0.000526943 0.000442611 0
-0.000534026 0.000460176 0
-0.000531099 0.000407297 0
-0.000511672 0.000401178 0
-0.000516129 0.000420948 0
-0.000524 0.0005 0
-0.000505983 0.000484325 0
-0.000531201 0.000370361 0
-0.0005072 0.00037867 0
-0.000523982 0.000388328 0
-0.00048341 0.000469132 0
-0.000483679 0.000487539 0
-0.000528367 0.000346817 0
-0.00055 0.000325 0
-0.000525657 0.000328474 0
-0.000498 0.0005 0
-0.000530382 0.0003125 0
-0.000419243 0.000477545 0
-0.000440015 0.00047335 0
-0.000425917 0.000463678 0
-0.000435138 0.000262661 0
-0.000414982 0.000274462 0
-0.000435654 0.000285217 0
-0.000459 0.000484239 0
-0.000436852 0.000487027 0
-0.000446 0.0005 0
-0.000533308 0.000292503 0
-0.00055 0.000275 0
-0.000523377 0.000276953 0
-0.000425282 0.000446352 0
-0.000409368 0.000435728 0
-0.000406302 0.000455143 0
0.002009 0.000495 0
0.001998 0.0005 0
0.00199875 0.00049375 0
0.0019885 0.0004925 0
0.001972 0.0005 0
0.00197825 0.00049125 0
0.001968 0.00049 0
0.00195775 0.00048875 0
0.001946 0.0005 0
0.0019475 0.0004875 0
0.00193725 0.00048625 0
0.00192 0.0005 0
0.001927 0.000485 0
0.00191675 0.00048375 0
0.0019065 0.0004825 0
0.001894 0.0005 0
0.00189625 0.00048125 0
0.001886 0.00048 0
0.001868 0.0005 0
0.00187575 0.00047875 0
0.0018655 0.0004775 0
0.00185515 0.00048575 0
0.001842 0.0005 0
0.001845 0.000475 0
0.00185525 0.00047625 0
0.00182564 0.0004829 0
0.001816 0.0005 0
0.0018245 0.0004725 0
0.00183475 0.00047375 0
0.00181425 0.00047125 0
0.00180295 0.000482657 0
0.00179 0.0005 0
0.00179375 0.00046875 0
0.001804 0.00047 0
0.00178168 0.000480619 0
0.001764 0.0005 0
0.00177325 0.00046625 0
0.0017835 0.0004675 0
0.00176428 0.000476631 0
0.001763 0.000465 0
0.001738 0.0005 0
0.001751 0.000484164 0
0.00175275 0.00046375 0
0.00174025 0.000475632 0
0.001712 0.0005 0
0.00172615 0.000478449 0
0.001722 0.00046 0
0.00173225 0.00046125 0
0.0017015 0.0004575 0
0.00171243 0.00047381 0
0.00169554 0.000479999 0
0.001686 0.0005 0
0.00167507 0.000479751 0
0.00168498 0.000464861 0
0.00166 0.0005 0
0.0016558 0.000471459 0
0.00167135 0.000462887 0
0.001681 0.000455 0
0.0016605 0.0004525 0
0.00167075 0.00045375 0
0.00164059 0.000461599 0
0.0016394 0.000479551 0
0.00162881 0.00046615 0
0.00162975 0.00044875 0
0.00165025 0.00045125 0
0.00164 0.00045 0
0.00161754 0.000458641 0
0.00161722 0.000478101 0
0.00159956 0.000458294 0
0.00160925 0.00044625 0
0.0016195 0.0004475 0
0.00157667 0.000460322 0
0.00158875 0.00044375 0
0.00159194 0.000480155 0
0.001599 0.000445 0
0.0015785 0.0004425 0
0.00155808 0.000456757 0
0.00155647 0.000476701 0
0.00154059 0.000466642 0
0.00153756 0.000450083 0
0.00154839 0.000450446 0
0.00156825 0.00044125 0
0.00151954 0.000480508 0
0.00154052 0.00048477 0
0.00153 0.0005 0
0.00154775 0.00043875 0
0.00152142 0.000456625 0
0.00152821 0.000445753 0
0.0015375 0.0004375 0
0.001504 0.0005 0
0.00149644 0.000485168 0
0.00151787 0.000443178 0
0.00152725 0.00043625 0
0.00150675 0.00043375 0
0.001517 0.000435 0
0.00148119 0.000450887 0
0.00148072 0.000475756 0
0.00146584 0.000463516 0
0.00150008 0.00046396 0
0.00149351 0.00044543 0
0.0015061 0.000446252 0
0.001476 0.00043 0
0.00148625 0.00043125 0
0.00146492 0.000482975 0
0.00144888 0.000473562 0
0.00146676 0.000444259 0
0.00145255 0.000453656 0
0.00145652 0.000438669 0
0.00141401 0.000479821 0
0.001426 0.0005 0
0.0014 0.0005 0
0.00144374 0.000438862 0
0.0014555 0.0004275 0
0.001435 0.000425 0
0.00144525 0.00042625 0
0.00142746 0.000438121 0
0.00141288 0.000443191 0
0.00141707 0.000432778 0
0.0013921 0.000438992 0
0.00140355 0.00045932 0
0.00138302 0.00045922 0
0.00142912 0.000458869 0
0.00140592 0.000430037 0
0.0014145 0.0004225 0
0.00136458 0.00045869 0
0.00137106 0.00044063 0
0.001394 0.00042 0
0.00138259 0.000428915 0
0.00137484 0.000477094 0
0.00139166 0.000478902 0
0.0013586 0.000478984 0
0.00133449 0.000478649 0
0.00134717 0.000461848 0
0.00137256 0.000425134 0
0.00135323 0.000424541 0
0.00136325 0.00041625 0
0.00136122 0.00042876 0
0.00131206 0.000447284 0
0.00133168 0.000456738 0
0.00131773 0.000465243 0
0.00134756 0.000440343 0
0.00132747 0.000436463 0
0.00133483 0.000426786 0
0.00131081 0.00041867 0
0.00132382 0.000422815 0
0.00131507 0.00043122 0
0.00131059 0.000480123 0
0.0013325 0.0004125 0
0.0012915 0.0004075 0
0.0012982 0.000418199 0
0.00128915 0.000426216 0
0.00126366 0.000447574 0
0.00127331 0.000430908 0
0.00128781 0.000444872 0
0.00125336 0.000428376 0
0.00130218 0.000431077 0
0.00127894 0.000416344 0
0.00124774 0.000469608 0
0.00127668 0.000464148 0
0.00126591 0.00048331 0
0.00126722 0.000418415 0
0.00125768 0.000411931 0
0.00124326 0.000413546 0
0.0012505 0.0004025 0
0.00122408 0.000450118 0
0.00120276 0.000447432 0
0.0012139 0.000432235 0
0.00124336 0.000444132 0
0.00123056 0.000427595 0
0.00122977 0.000409049 0
0.0012185 0.000469217 0
0.00122676 0.000485947 0
0.00120525 0.000486094 0
0.00121479 0.000413153 0
0.00119547 0.000424221 0
0.00120249 0.000407448 0
0.00119925 0.00039625 0
0.00119346 0.000406114 0
0.00117479 0.000447279 0
0.00114726 0.000445259 0
0.0011571 0.000427814 0
0.00119443 0.000466611 0
0.00117447 0.000421596 0
0.00118421 0.00040752 0
0.00117409 0.000404437 0
0.00116775 0.000470073 0
0.001179 0.0004855 0
0.00115473 0.000484802 0
0.0011685 0.0003925 0
0.00117875 0.00039375 0
0.00115454 0.000400551 0
0.001148 0.00039 0
0.00115825 0.00039125 0
0.00111703 0.000423398 0
0.00113786 0.000426731 0
0.00112589 0.000443871 0
0.00113234 0.000406671 0
0.00114754 0.000413371 0
0.001106 0.000442326 0
0.00109703 0.000424261 0
0.0011275 0.0003875 0
0.00113775 0.00038875 0
0.00110211 0.000480875 0
0.00108244 0.000471951 0
0.00109312 0.000458413 0
0.00111755 0.000399116 0
0.0010944 0.000392972 0
0.00110415 0.000405876 0
0.00108839 0.000407536 0
0.00106472 0.000476905 0
0.00107274 0.000457868 0
0.00108011 0.000392415 0
0.00106885 0.000404365 0
0.00106625 0.000388708 0
0.00105286 0.000419254 0
0.00105055 0.000395469 0
0.00104215 0.000439764 0
0.00106346 0.000440629 0
0.00100945 0.000451249 0
0.00102825 0.00045614 0
0.00101189 0.000468452 0
0.00107625 0.00038125 0
0.00105575 0.00037875 0
0.001066 0.00038 0
0.00103352 0.000476905 0
0.00101803 0.00048465 0
0.00103685 0.000389398 0
0.0010245 0.00038825 0
0.00103525 0.00037625 0
0.00101092 0.000399779 0
0.00101267 0.000382619 0
0.00101382 0.00042025 0
0.00103187 0.000405286 0
0.00103359 0.000424605 0
0.000987383 0.00045447 0
0.000999411 0.000435161 0
0.0009744 0.000433145 0
0.0010045 0.0003725 0
0.00101475 0.00037375 0
0.000970845 0.000465215 0
0.000952614 0.000467664 0
0.000961768 0.000449944 0
0.00099729 0.000387704 0
0.000978901 0.00039598 0
0.000985823 0.000381492 0
0.000962289 0.000393709 0
0.000974259 0.000381279 0
0.00097375 0.00036875 0
0.000963045 0.000376631 0
0.000958 0.0005 0
0.000932 0.0005 0
0.000947542 0.00048457 0
0.000949675 0.000385245 0
0.000936214 0.000389472 0
0.000940006 0.000374906 0
0.000966411 0.000412573 0
0.000944241 0.000407079 0
0.000903569 0.000424993 0
0.000921701 0.000402409 0
0.000927439 0.000427744 0
0.000889795 0.000409067 0
0.000903071 0.00040248 0
0.000925447 0.000377721 0
0.00093275 0.00036375 0
0.000907708 0.000387127 0
0.000911303 0.000370839 0
0.000911933 0.000455145 0
0.000930678 0.000473279 0
0.000911886 0.000482603 0
0.000887724 0.000388076 0
0.000899595 0.000375116 0
0.000902 0.00036 0
0.000889241 0.00036954 0
0.000836977 0.000459472 0
0.000836223 0.000483578 0
0.000820467 0.000474142 0
0.000871227 0.000403557 0
0.000861 0.000355 0
0.000868368 0.000365714 0
0.00085484 0.00036588 0
0.000847735 0.000402845 0
0.000823121 0.000421599 0
0.000826582 0.000398147 0
0.000846943 0.00042454 0
0.000838832 0.000378613 0
0.000835569 0.000363808 0
0.000844098 0.00036291 0
0.00085075 0.00035375 0
0.000851465 0.000477164 0
0.00083025 0.00035125 0
0.000822824 0.000368659 0
0.00081446 0.000357362 0
0.000805884 0.000371794 0
0.000753471 0.000477524 0
0.000738313 0.000473927 0
0.000739102 0.000461526 0
0.00079826 0.000358588 0
0.000788607 0.000376287 0
0.000781733 0.000357987 0
0.000816783 0.000384471 0
0.000807975 0.000404095 0
0.000752138 0.000404775 0
0.000767682 0.000417043 0
0.000749617 0.000421803 0
0.000752903 0.000384008 0
0.000738293 0.000393136 0
0.000772614 0.000394048 0
0.00076863 0.000371878 0
0.000765995 0.000354121 0
0.000779 0.000345 0
0.00071811 0.000453059 0
0.000738069 0.000437967 0
0.000752085 0.000365972 0
0.000728123 0.000374583 0
0.000741845 0.000354664 0
[...]
CELL_DATA 58684
VECTORS velocity DOUBLE
64.8216 0.195462 0
67.9445 -0.000136467 0
67.8343 0.000235958 0
67.9518 -0.00122121 0
67.8369 0.00053025 0
67.956 -0.00456512 0
67.8408 0.00423345 0
67.9329 0.0223153 0
67.9998 0.0242522 0
68.1785 0.0184772 0
68.2921 0.0205442 0
68.3393 0.0360946 0
68.0839 0.15072 0
68.4125 0.0012154 0
68.0558 0.260954 0
68.5797 -0.0367062 0
67.9158 0.132749 0
68.9023 -0.0844715 0
68.0545 0.385051 0
69.2704 -0.0605285 0
67.8514 0.112759 0
68.8619 -0.193143 0
72.5958 -1.37288 0
67.8391 -0.0110375 0
67.9163 -0.0836474 0
67.8331 -0.0345115 0
67.9978 -0.194479 0
67.9997 -0.025819 0
67.9281 -0.268237 0
68.1553 -0.0621723 0
67.8404 -0.172854 0
68.1259 -0.0291829 0
67.9315 -0.177224 0
68.4599 -0.010924 0
68.0133 0.185234 0
68.3548 -0.0110922 0
67.778 -0.182204 0
68.5231 0.0556984 0
67.9559 -0.00632021 0
67.9578 -0.00240018 0
67.9577 -0.00664941 0
67.9556 -0.0113537 0
67.9418 -0.00536994 0
67.937 -0.00931708 0
67.928 -0.0168895 0
67.9164 -0.0246545 0
67.8988 -0.0110898 0
67.8872 -0.0210298 0
67.8762 -0.0313184 0
67.8376 -0.0151993 0
67.827 -0.0270516 0
67.8058 -0.0404292 0
67.7866 -0.0488295 0
67.7458 -0.0239185 0
67.7243 -0.0418984 0
67.7059 -0.0491349 0
67.6419 -0.0254868 0
67.6245 -0.0497266 0
67.5937 -0.0577947 0
67.5595 -0.0564697 0
67.5057 -0.0237751 0
67.5173 -0.0760433 0
67.4285 -0.0706527 0
67.3841 -0.0257922 0
67.4006 -0.097607 0
67.3708 -0.118617 0
67.3262 -0.0934444 0
67.2791 -0.0248962 0
67.2795 -0.12286 0
67.2366 -0.0975609 0
67.1792 -0.0219633 0
67.1977 -0.132807 0
67.1697 -0.117968 0
67.162 -0.141705 0
67.0887 -0.0227986 0
67.0918 -0.117071 0
67.0905 -0.0694758 0
67.0373 -0.0261032 0
67.058 -0.164824 0
67.0367 -0.130914 0
67.0401 -0.140788 0
67.0312 -0.0215278 0
67.0359 -0.0853631 0
67.0206 -0.170717 0
67.0878 -0.101004 0
67.0523 -0.147729 0
67.0714 -0.196143 0
67.1034 -0.232254 0
67.153 -0.152862 0
67.2171 -0.201518 0
67.1164 -0.184024 0
67.1861 -0.245431 0
67.2658 -0.185684 0
67.2581 -0.185455 0
67.2682 -0.255801 0
67.4286 -0.227877 0
67.3606 -0.202465 0
67.3747 -0.260211 0
67.4744 -0.292084 0
67.5431 -0.219757 0
67.677 -0.244584 0
67.5219 -0.229982 0
67.7337 -0.0707185 0
67.6657 -0.2709 0
67.8137 -0.255482 0
67.7297 -0.277295 0
67.8849 -0.0866414 0
67.8122 -0.283664 0
67.9032 -0.307119 0
68.0842 -0.166277 0
68.0638 -0.179116 0
67.9582 -0.252988 0
68.1189 -0.295823 0
68.1905 -0.124067 0
68.2873 -0.257098 0
68.2584 -0.16997 0
68.4812 -0.00835527 0
68.3095 -0.282055 0
68.3768 -0.29762 0
68.5405 -0.259025 0
68.6404 -0.171972 0
68.4919 -0.157065 0
68.5588 -0.277496 0
68.7335 -0.164262 0
68.6738 -0.268857 0
68.6545 -0.0884352 0
68.7354 -0.238344 0
68.8288 -0.0826039 0
68.7695 -0.266793 0
68.8396 -0.286282 0
68.9728 -0.153045 0
68.9297 -0.221121 0
68.8945 -0.105021 0
69.0183 -0.26696 0
68.9354 -0.0808585 0
68.9648 -0.275612 0
69.1165 -0.275855 0
69.1638 -0.187277 0
69.1953 -0.221838 0
69.1032 -0.237382 0
69.157 -0.24758 0
69.1138 -0.105075 0
69.2468 -0.267695 0
69.297 -0.280383 0
69.3939 -0.174883 0
69.229 -0.135538 0
69.2891 -0.240724 0
69.3302 -0.27927 0
69.2837 -0.0495047 0
69.4847 -0.281259 0
69.5083 -0.29369 0
69.6496 -0.16959 0
69.4611 -0.169191 0
69.5454 -0.243253 0
69.5975 -0.301033 0
69.5082 -0.0434107 0
69.6359 -0.33917 0
69.7574 -0.342216 0
69.848 -0.246183 0
69.7995 -0.281038 0
69.9805 -0.253851 0
69.869 -0.343955 0
69.9748 -0.0821519 0
69.8975 -0.316123 0
70.1016 -0.30793 0
70.129 -0.0987681 0
70.2809 -0.362695 0
70.37 -0.32157 0
70.3664 -0.178343 0
70.6047 -0.141781 0
70.2926 -0.354908 0
70.3967 -0.397834 0
70.5442 -0.0647634 0
70.6109 -0.356819 0
70.7576 -0.382197 0
70.5571 -0.270996 0
70.8275 -0.142456 0
70.9374 -0.212931 0
70.8444 -0.428686 0
71.1213 -0.120004 0
71.0487 -0.373754 0
71.145 -0.345702 0
71.2021 -0.42095 0
71.2498 0.014036 0
71.5067 -0.397021 0
71.2021 -0.298369 0
71.6205 -0.237053 0
71.824 -0.288722 0
71.6184 -0.435901 0
71.7976 -0.435978 0
71.5971 -0.0750728 0
71.9069 -0.411259 0
71.9615 -0.486768 0
72.0041 -0.47743 0
72.476 -0.0983567 0
72.0389 -0.358275 0
72.37 -0.521215 0
72.6002 -0.411072 0
72.447 -0.337503 0
72.5128 -0.571188 0
72.469 -0.554101 0
72.4252 -0.0818116 0
72.6898 -0.628642 0
72.7579 -0.583653 0
73.2041 -0.131543 0
72.9282 -0.672995 0
72.7255 -0.431316 0
73.1679 -0.446195 0
73.2163 -0.606407 0
73.0478 -0.621671 0
73.0146 -0.728148 0
73.2297 -0.314341 0
73.2004 -0.750425 0
73.1639 -0.838883 0
73.3167 -0.91632 0
73.424 -0.0230159 0
73.3484 -0.78268 0
73.3204 -0.973306 0
73.3561 -0.267789 0
73.3488 -1.02847 0
73.5331 -0.683821 0
73.3917 -1.07062 0
73.6282 -0.452952 0
73.4219 -1.06921 0
73.4225 -1.19133 0
73.6043 -0.226224 0
73.4842 -1.27555 0
73.5437 -1.39774 0
73.5993 -1.14869 0
73.6941 -0.804424 0
73.5324 -1.58081 0
73.7776 -0.771902 0
74.0305 -0.138924 0
73.5218 -1.32513 0
73.5583 -1.65516 0
73.6596 -1.76082 0
73.9822 -0.744142 0
73.7673 -1.7193 0
73.8381 -1.94118 0
74.1578 -0.251137 0
73.996 -2.06018 0
73.849 -2.152 0
73.9982 -1.67593 0
74.2488 -0.942787 0
74.3108 -1.15792 0
73.99 -2.34564 0
74.6069 -0.0289357 0
74.107 -2.5306 0
74.2598 -2.52748 0
74.2024 -2.61134 0
74.8649 -0.854874 0
74.5973 -2.37523 0
74.7774 -2.56285 0
75.0099 -0.0289624 0
74.8832 -2.96484 0
75.3522 -2.81886 0
75.0122 -1.97486 0
75.063 -1.03612 0
75.1795 -3.03513 0
75.2577 -1.27286 0
75.4203 -0.167607 0
75.3109 -2.37515 0
75.5922 -3.01371 0
75.914 -2.94351 0
75.5848 -0.640703 0
76.1874 -2.43102 0
76.062 -2.85521 0
75.6224 -0.300557 0
76.3019 -2.9667 0
76.6709 -2.80404 0
76.5403 -1.7329 0
75.6274 -0.0173488 0
77.0034 -2.50877 0
76.4195 -0.881553 0
76.7441 -0.875622 0
76.9712 -2.21575 0
76.7707 -1.67211 0
77.6439 -1.92109 0
75.8611 -0.23585 0
77.5457 -2.13849 0
77.306 -1.16194 0
77.9114 -1.2366 0
75.7142 -0.0874615 0
78.0291 -0.302486 0
77.8283 -0.0189975 0
74.942 0.0703419 0
78.221 -0.780382 0
78.3061 -0.134068 0
76.0546 0.481603 0
75.6684 0.0955181 0
77.1594 -0.149436 0
78.2486 0.49395 0
75.1426 0.141723 0
77.8162 1.40203 0
78.1825 0.699706 0
78.1876 0.944991 0
74.6581 0.791315 0
76.8174 1.58691 0
77.7962 1.76792 0
74.6155 0.119524 0
77.6 2.26191 0
77.5269 2.16421 0
76.6466 3.49355 0
73.171 0.226218 0
77.445 3.25029 0
75.8928 2.17462 0
74.3102 0.920263 0
74.2108 1.90916 0
77.2699 3.60264 0
76.523 4.02031 0
73.5529 0.38539 0
76.365 4.62178 0
67.8396 0.00548909 0
67.8386 0.00233639 0
67.8345 0.004574 0
67.832 0.0115014 0
67.8181 0.00513629 0
67.8106 0.00793432 0
67.8013 0.0159213 0
67.7899 0.0232027 0
67.7709 0.0109085 0
67.7556 0.0167174 0
67.7452 0.0255339 0
67.7045 0.0149862 0
67.6927 0.0264405 0
67.6706 0.0387725 0
67.6511 0.0450153 0
67.6085 0.0235592 0
67.5865 0.0417495 0
67.5684 0.0484177 0
67.5041 0.0252206 0
67.484 0.0450083 0
67.454 0.05393 0
67.4035 0.0689404 0
67.4198 0.0549583 0
67.3523 0.0466945 0
67.2766 0.0885338 0
67.2863 0.0696476 0
67.2277 0.112878 0
67.1812 0.0913937 0
67.1606 0.106197 0
67.1939 0.051144 0
67.0887 0.0972441 0
67.0806 0.122405 0
67.0938 0.0525314 0
67.0156 0.140791 0
66.9912 0.147896 0
66.9771 0.108296 0
67.0094 0.0682665 0
66.9455 0.119147 0
66.9202 0.11798 0
66.9444 0.0709397 0
66.9046 0.194656 0
66.873 0.0889601 0
66.8924 0.134947 0
66.9039 0.0984589 0
66.8769 0.177742 0
66.9316 0.20333 0
66.9491 0.106136 0
66.9124 0.181164 0
66.9808 0.212863 0
66.979 0.237145 0
67.0674 0.122004 0
67.0219 0.160656 0
67.0903 0.212461 0
67.1524 0.296432 0
67.1955 0.142531 0
67.2044 0.233763 0
67.2575 0.303424 0
67.3547 0.180267 0
67.2408 0.221708 0
67.3738 0.328357 0
67.3813 0.309377 0
67.4693 0.190506 0
67.5618 0.132655 0
67.5976 0.275254 0
67.278 0.104352 0
67.6533 0.320939 0
67.8542 0.356851 0
67.7766 0.305877 0
67.7283 0.188873 0
67.9369 0.355816 0
67.9859 0.312431 0
68.1786 0.151443 0
67.9126 0.300718 0
68.1279 0.314825 0
68.2139 0.345182 0
68.0305 0.0944638 0
68.195 0.253508 0
68.3962 0.369035 0
68.2704 0.204681 0
68.4615 0.325818 0
68.6027 0.360447 0
68.5261 0.278197 0
68.67 0.104576 0
68.6645 0.311716 0
68.7347 0.355164 0
68.7476 0.0932269 0
68.8184 0.361892 0
68.73 0.271264 0
68.9416 0.285614 0
68.8056 0.207245 0
68.9509 0.365027 0
69.1409 0.385345 0
69.0697 0.0984729 0
69.0372 0.279816 0
69.217 0.389089 0
69.1606 0.271409 0
69.0237 0.125693 0
69.2626 0.338319 0
69.3158 0.333667 0
69.2382 0.0779277 0
69.3457 0.136784 0
69.3984 0.261631 0
69.4381 0.348567 0
69.2801 0.205927 0
69.5101 0.310333 0
69.5529 0.312604 0
69.5725 0.0880117 0
69.5119 0.193194 0
69.6578 0.308888 0
69.6479 0.259857 0
69.4358 0.102363 0
69.6953 0.268742 0
69.8113 0.255855 0
69.7621 0.0896427 0
69.7308 0.239136 0
69.9324 0.282306 0
69.9062 0.205999 0
69.6384 0.0851958 0
69.9844 0.230698 0
70.1271 0.251755 0
69.8876 0.0813038 0
70.1053 0.173425 0
70.0742 0.0726706 0
70.1893 0.179373 0
70.0212 0.119168 0
70.2603 0.225896 0
70.3846 0.1712 0
70.2055 0.0543826 0
70.3569 0.183462 0
70.5266 0.178067 0
70.4857 0.024965 0
70.2897 0.167648 0
70.5135 0.151738 0
70.6343 0.154317 0
70.4196 0.0380887 0
70.6603 0.135569 0
70.8769 0.178053 0
70.8536 0.145056 0
70.7897 0.0357494 0
71.0159 0.175163 0
70.6429 0.0518352 0
70.6645 0.148918 0
70.9824 0.178774 0
71.2142 0.216167 0
71.2498 0.227797 0
70.7082 -0.0156703 0
71.4503 0.297585 0
71.4838 0.287548 0
71.5995 0.308112 0
71.5855 0.127144 0
71.8383 0.14784 0
71.593 0.324922 0
71.1981 0.0688656 0
71.8374 0.398315 0
71.8407 0.41324 0
71.9347 0.402768 0
71.8713 0.121319 0
72.0405 0.478274 0
72.2732 0.660446 0
72.2435 0.256319 0
72.0928 0.221539 0
72.2974 0.565639 0
72.5015 0.774091 0
71.9133 0.111543 0
72.5891 0.841809 0
72.6447 0.856555 0
72.6549 0.162764 0
72.8975 1.08759 0
72.934 1.0587 0
73.1036 0.987634 0
72.9732 0.413872 0
72.8921 0.432935 0
72.9145 1.06061 0
72.7643 0.251115 0
73.1457 1.32307 0
73.1926 1.28749 0
73.2548 1.25817 0
73.1337 0.185193 0
73.3895 1.49934 0
73.3896 1.56604 0
73.3708 0.860786 0
73.6452 1.2664 0
73.4838 0.734101 0
73.4672 1.53054 0
73.3963 0.427732 0
73.6467 1.82949 0
73.6435 1.80058 0
73.442 0.362064 0
73.7379 1.69255 0
73.9102 1.9562 0
73.8285 1.90945 0
73.9528 0.462872 0
74.2132 2.08899 0
74.2548 2.2165 0
73.7423 1.34678 0
74.1281 1.70689 0
73.9266 0.844476 0
74.4563 2.35674 0
74.0959 0.277796 0
74.4839 2.3144 0
74.4769 2.24171 0
73.9226 0.221078 0
74.3485 2.04733 0
74.7971 2.39718 0
74.904 2.40461 0
74.5121 0.69292 0
74.9642 2.38652 0
75.0339 2.52801 0
74.354 1.58731 0
75.1722 1.83274 0
74.7073 0.703444 0
75.2191 2.52916 0
74.7851 0.276585 0
75.3831 2.45478 0
75.4963 2.43646 0
74.5706 0.178382 0
75.3894 2.15021 0
75.8023 2.4039 0
76.0243 2.33625 0
75.06 0.585604 0
75.8709 2.25869 0
76.1818 2.35711 0
75.5579 1.91052 0
76.2553 1.64772 0
75.2285 0.486964 0
76.0094 2.18287 0
75.3704 0.209115 0
76.5085 2.28824 0
76.6058 2.09263 0
75.2009 0.156931 0
76.4825 1.66779 0
76.8125 1.82358 0
77.0734 1.6975 0
75.6292 0.214247 0
77.2091 1.52627 0
77.2934 1.3646 0
75.8491 0.346694 0
77.3342 1.39934 0
76.8223 0.666709 0
75.9193 0.68207 0
75.6805 0.529024 0
77.4816 1.13936 0
77.4248 0.625998 0
77.7762 0.547596 0
75.5278 0.0219473 0
77.3344 0.138219 0
77.8295 -0.14685 0
75.6261 0.0819082 0
77.1521 0.116389 0
77.8842 -0.676149 0
76.8243 -0.422967 0
75.7318 0.00357104 0
77.7973 -0.993655 0
77.7342 -1.32636 0
76.5934 0.099581 0
76.4635 -1.59953 0
74.97 -1.4524 0
77.5746 -1.4019 0
74.9457 -0.131424 0
77.5457 -2.20402 0
75.8014 5.03629 0
76.2681 4.50965 0
72.5276 1.29294 0
75.7626 4.96623 0
74.2271 4.60479 0
75.1612 5.45427 0
72.8585 0.492755 0
74.5561 5.58697 0
73.8322 5.52738 0
72.0863 0.668816 0
73.7871 5.87279 0
77.5087 -2.55401 0
75.1146 -0.0610891 0
77.3508 -2.84986 0
76.5246 -3.21863 0
75.9754 -2.69417 0
74.5827 -0.128019 0
76.6832 -3.71059 0
73.0722 5.41697 0
76.1766 -4.63411 0
74.5402 -0.756546 0
75.9895 -4.47887 0
75.2728 -5.19253 0
71.4153 1.65145 0
75.0551 -5.09703 0
75.826 -2.55773 0
75.5395 -4.5639 0
74.1295 -3.3201 0
73.1787 -0.517981 0
74.866 -4.65698 0
74.3617 -4.97179 0
72.6229 5.69711 0
74.3767 -5.02036 0
73.7195 -0.255067 0
73.707 -5.28048 0
73.2583 -5.7735 0
72.7901 -0.339088 0
72.5439 -5.90604 0
72.8925 -4.28962 0
71.5256 -0.458912 0
71.8893 -6.01865 0
71.9144 -3.35346 0
72.8966 -2.51056 0
72.3496 -5.16927 0
71.55 -5.47028 0
73.1957 2.96116 0
70.9207 0.381427 0
72.72 1.98984 0
71.8986 -0.0477258 0
71.1897 -5.87537 0
72.451 5.39691 0
70.8044 0.265115 0
71.9681 4.62035 0
70.5967 -5.84877 0
71.6176 -1.18333 0
70.0972 -4.24294 0
71.8851 6.12575 0
70.1095 1.35347 0
71.8674 6.04474 0
70.4642 5.16387 0
70.3264 0.273575 0
70.9376 5.39168 0
70.4797 -4.43627 0
71.3795 -0.349184 0
70.0051 -5.98113 0
70.0629 -5.78471 0
71.141 5.77764 0
69.8568 5.57302 0
69.9659 0.0217907 0
70.5597 5.74545 0
69.2679 3.44301 0
69.8628 1.50623 0
69.3308 -5.92789 0
70.1882 -0.73473 0
69.5974 -5.82183 0
68.8835 5.81029 0
68.8886 -5.46696 0
69.6986 -0.678201 0
69.2681 -2.2052 0
68.1042 -5.19872 0
70.2108 -2.82247 0
67.9436 -4.99512 0
69.4548 -0.17081 0
67.2736 -4.7878 0
68.9275 1.80474 0
69.5748 0.276815 0
68.609 4.89 0
69.2519 0.055954 0
68.3883 5.72515 0
68.293 5.37107 0
69.0272 0.0990827 0
67.7471 4.64886 0
68.8581 0.0613651 0
68.2493 -4.46986 0
69.4518 -0.333416 0
69.1053 4.18596 0
67.8662 -0.414184 0
67.5342 4.34157 0
67.2036 -4.79038 0
69.5543 -0.144536 0
65.9503 -4.01938 0
67.7956 0.458809 0
66.4782 -3.99989 0
68.3739 1.53254 0
67.7834 -0.0896683 0
68.8011 -3.55851 0
67.8142 0.118437 0
66.0296 -3.76875 0
67.0398 3.88272 0
67.0967 -2.85526 0
67.856 0.286723 0
66.2363 -3.1909 0
67.7815 1.9267 0
66.0033 1.22893 0
66.6536 3.29879 0
67.5111 -0.177626 0
66.177 -3.55393 0
67.7825 -0.395234 0
66.5796 4.56134 0
67.5993 -1.46248 0
67.7907 0.0489643 0
65.9034 -3.22291 0
66.4795 4.09757 0
67.737 -0.345423 0
66.3228 3.14355 0
66.1694 3.09285 0
67.6755 -0.342741 0
65.5853 2.75174 0
65.3003 -2.86639 0
67.7679 0.279843 0
65.0299 -2.88609 0
66.6452 -1.2767 0
67.7338 0.157923 0
64.6764 -1.9844 0
65.574 3.50747 0
67.6342 -0.274661 0
66.4541 2.115 0
65.0259 -1.74793 0
67.5576 0.207223 0
64.5378 -1.64854 0
64.7067 2.52791 0
67.5467 -0.213034 0
64.9617 2.39113 0
65.186 1.90414 0
67.7457 -0.0333215 0
64.6247 2.0725 0
65.3688 -1.01784 0
67.531 0.178921 0
64.8368 -0.940293 0
64.0277 -0.616869 0
66.9943 -0.52708 0
64.1913 -0.527536 0
66.7302 0.551002 0
67.6004 -0.0556458 0
66.1508 1.54131 0
64.5424 1.63151 0
67.4398 -0.0514223 0
64.1066 1.05187 0
67.2254 -0.0759506 0
67.7498 0.0490487 0
64.0734 -0.181772 0
64.3987 -0.0662682 0
67.5898 0.0403619 0
65.9783 0.147294 0
64.6674 0.332835 0
67.6565 0.0300523 0
67.2305 -3.90737 0
67.946 0.484061 0
67.8285 -0.0956347 0
67.8638 4.79168 0
68.4919 -5.44006 0
70.7255 -0.666197 0
69.8191 0.630512 0
70.3091 6.02861 0
67.6715 -0.235983 0
65.218 3.35259 0
64.7567 -1.9695 0
67.8433 0.171523 0
67.8698 0.496914 0
67.4532 -2.36168 0
67.9307 -0.309743 0
67.6912 -0.188517 0
67.5655 -0.0138895 0
64.4645 1.41206 0
69.2033 0.264262 0
68.3012 0.782884 0
68.6606 -0.744842 0
69.744 -0.446245 0
72.8208 -0.778149 0
72.9052 -5.7594 0
74.0586 5.55669 0
72.6132 0.289936 0
67.625 0.816551 0
68.8708 5.57155 0
68.1998 -4.938 0
68.9174 -1.40971 0
66.8398 -0.913222 0
65.1944 -0.175586 0
66.5514 4.01714 0
67.9208 1.02473 0
67.7804 -0.954842 0
65.3596 -3.24501 0
77.176 -3.32084 0
74.3966 -0.348131 0
74.2471 0.444445 0
77.5095 2.90704 0
67.928 0.267105 0
67.9118 0.0458296 0
67.9826 -0.220941 0
68.9384 0.398148 0
71.2832 0.508222 0
71.0778 2.88186 0
70.2268 -1.36078 0
71.9765 -1.16109 0
70.3362 3.43709 0
72.2394 5.75799 0
71.5894 -5.98773 0
70.9849 -1.33099 0
73.3373 1.02856 0
74.2989 3.42271 0
73.1951 -1.76246 0
73.7242 -0.0120178 0
75.6466 0.117268 0
77.8227 0.318277 0
77.9626 -1.2631 0
75.2945 -0.00880066 0
75.3572 0.0239693 0
76.6416 2.11593 0
76.6579 -2.60519 0
75.7034 -0.34777 0
68.9234 -0.839855 0
68.5555 -0.210876 0
68.3338 0.51846 0
69.1024 0.543079 0
68.1621 0.379602 0
67.8579 -0.294909 0
67.8238 0.130684 0
68.1133 -0.207384 0
75.1822 0.435274 0
76.2864 0.79654 0
75.3079 -0.3983 0
75.2598 -0.0127076 0
66.0536 -0.693343 0
67.5896 0.116298 0
67.2737 -0.063315 0
67.6979 0.341208 0
67.7294 -0.166564 0
67.7599 -0.126714 0
75.5587 2.39583 0
74.9456 0.446664 0
75.1808 -0.0335343 0
74.825 -2.78534 0
70.5433 -0.0243507 0
70.0343 -1.90055 0
70.6179 1.26739 0
69.942 0.299003 0
67.623 2.61139 0
67.1693 5.08471 0
67.181 -4.3425 0
68.065 -2.05015 0
68.5994 -1.26246 0
67.4027 -1.38069 0
67.6819 3.06579 0
68.0172 1.29074 0
75.7998 -0.459926 0
75.7199 -0.177184 0
75.6206 0.139605 0
76.3769 1.31951 0
69.0636 -3.70124 0
69.8441 -3.63546 0
69.5634 3.19206 0
69.7763 6.00384 0
68.6409 -2.59854 0
69.6292 -1.49516 0
69.3648 2.05529 0
69.0581 0.909058 0
74.761 2.48399 0
74.309 0.36193 0
74.4046 -0.040678 0
73.7442 -2.02152 0
67.1726 0.459955 0
67.6883 -0.00727327 0
75.2163 -0.392165 0
75.8574 -1.7377 0
75.6795 0.999412 0
75.034 0.158429 0
68.8292 -0.507426 0
68.3121 -0.574117 0
68.9614 1.02571 0
68.2612 -0.010125 0
67.8392 0.167928 0
68.2199 0.201212 0
68.0514 -0.397049 0
67.8568 -0.136453 0
64.7538 1.14239 0
66.8602 0.897459 0
73.7414 -1.99596 0
76.242 -4.20076 0
76.8013 3.96336 0
73.5209 1.47169 0
66.8221 -1.49062 0
65.2691 -1.96999 0
73.7365 0.319553 0
73.7148 1.82521 0
72.8214 0.117936 0
73.3481 1.55726 0
73.5281 -1.32692 0
73.6657 -0.25447 0
73.222 -0.850178 0
73.311 -0.0189222 0
74.5467 -0.66493 0
74.4388 -1.63569 0
74.6891 0.996508 0
74.4989 0.0286132 0
67.6465 -0.141676 0
67.4691 -0.149689 0
66.423 0.254965 0
64.9147 0.538117 0
67.5327 0.153083 0
67.7039 0.106682 0
67.1772 0.0827083 0
67.1682 -0.373611 0
77.7554 -1.01986 0
75.3245 -0.784972 0
76.3624 1.08094 0
78.1978 0.0670607 0
68.2047 0.0531951 0
68.2389 0.201315 0
67.9602 -0.0604765 0
68.4294 -0.00373352 0
73.9245 -0.442027 0
73.7973 -1.02893 0
74.1871 0.815662 0
73.8447 0.249899 0
72.3738 0.174448 0
72.5101 0.712802 0
72.7753 -0.670136 0
72.7767 -0.156798 0
68.5082 -0.304043 0
69.1173 -1.3212 0
68.6914 0.916592 0
68.4159 0.616171 0
68.7696 1.76558 0
67.4338 1.00972 0
67.9846 -1.10271 0
68.499 -1.73781 0
76.1485 0.381053 0
76.7232 1.77866 0
77.1092 -2.26764 0
76.7713 -0.631558 0
67.563 -0.36825 0
67.6886 -0.516036 0
67.7112 0.103148 0
67.2031 0.646773 0
72.108 0.570066 0
71.6575 0.127742 0
72.0048 -0.0967004 0
72.2457 -0.508999 0
72.621 2.93036 0
74.0993 4.91415 0
73.6507 -5.69944 0
73.2247 -2.15836 0
65.6918 -2.33099 0
67.4129 -2.2723 0
72.3496 -2.04659 0
72.6191 -0.707303 0
71.7068 0.331937 0
73.7141 2.03154 0
65.4191 3.17397 0
66.7093 1.72497 0
73.4725 -0.0910165 0
73.5061 -0.844151 0
73.579 0.723391 0
73.5296 0.179243 0
74.6514 -0.167883 0
74.6099 -0.788715 0
75.1316 1.13803 0
74.3397 0.161785 0
71.3418 1.00082 0
70.3355 0.246522 0
70.9861 -0.233482 0
71.3331 -2.14062 0
75.5488 1.18249 0
75.6249 2.21312 0
75.6411 -2.86423 0
76.0776 -1.25982 0
70.7455 -2.65726 0
71.4076 -1.25702 0
70.9383 1.90583 0
72.6107 4.16997 0
71.2136 0.198334 0
71.0367 0.0302591 0
71.6726 -0.097522 0
71.245 -0.410223 0
72.9708 -0.21671 0
73.1955 -0.00808511 0
73.074 0.168507 0
72.558 0.588177 0
69.5602 0.29596 0
69.3691 0.774656 0
69.5632 -0.69557 0
70.063 -0.221639 0
70.3277 1.94925 0
69.3966 1.18507 0
68.8212 -1.78652 0
68.1479 -1.79441 0
75.6666 0.0615684 0
75.5154 0.0241519 0
75.5969 0.000784739 0
76.2586 -0.28506 0
69.15 2.55002 0
69.6526 1.66386 0
69.1848 -0.491397 0
69.1204 -0.184882 0
68.9902 0.138717 0
69.3997 0.523704 0
66.5291 -0.596832 0
67.4045 -0.627964 0
77.4434 -1.93963 0
75.4781 -0.996021 0
75.3387 2.41065 0
77.7864 2.223 0
67.8178 0.239068 0
67.7593 0.0930784 0
67.8321 -0.182091 0
67.9392 -0.293226 0
68.3646 -0.0358193 0
68.3665 0.0674498 0
68.5199 -0.0529411 0
68.6671 0.0045002 0
65.7531 -0.22472 0
64.0577 0.0862185 0
72.5335 2.20406 0
75.2312 1.84917 0
74.1826 -1.49229 0
74.7924 -3.20033 0
67.4402 1.20907 0
67.0257 0.595625 0
67.76 0.00919978 0
67.4252 0.002962 0
69.5456 4.7959 0
67.9881 2.62661 0
69.3371 -2.9105 0
68.5369 -5.65296 0
67.1915 0.263983 0
67.5647 -0.271889 0
74.689 1.29406 0
74.9211 2.48378 0
74.1042 -2.27746 0
74.5424 -0.581318 0
72.0713 -0.128305 0
72.6086 -0.0824951 0
72.395 0.0780908 0
71.8842 0.361042 0
77.9506 -1.28747 0
77.027 0.158939 0
76.568 0.630765 0
77.5844 0.872014 0
67.2683 -0.000850139 0
66.8204 -1.11401 0
68.0207 0.528441 0
68.2087 1.0764 0
68.3806 -1.30922 0
68.1391 -0.0983098 0
67.6549 -0.0610288 0
67.3371 -0.0245926 0
70.2655 -3.96883 0
69.495 -2.18193 0
69.4829 -1.3015 0