# vtk DataFile Version 3.0
Unstructured Grid for Triangles
ASCII
DATASET UNSTRUCTURED_GRID
POINTS 29612 DOUBLE
-0.000272397 1.23686e-05 0
-0.000295789 9.5838e-06 0
-0.000277865 -3.1235e-06 0
0.002024 0.0005 0
0.00203975 0.00049875 0
0.00205 0.0005 0
0.00203975 -0.00049875 0
0.002024 -0.0005 0
0.00205 -0.0005 0
0.0020295 0.0004975 0
0.0020295 -0.0004975 0
0.00201925 0.00049625 0
0.00201925 -0.00049625 0
-0.000529747 -0.000479887 0
-0.00055 -0.0005 0
-0.000524 -0.0005 0
-0.000505983 -0.000484325 0
-0.000498 -0.0005 0
-0.000472 -0.0005 0
-0.000483864 -0.000487761 0
-0.000446 -0.0005 0
-0.000459 -0.000484239 0
-0.000429453 -0.000424878 0
-0.000447486 -0.000420717 0
-0.000441829 -0.000436609 0
-0.000512578 -0.000462101 0
-0.000493078 -0.000453594 0
-0.00050706 -0.000439006 0
-0.000419243 -0.000477545 0
-0.000440307 -0.000471837 0
-0.00043691 -0.000486724 0
-0.000516129 -0.000420948 0
-0.000495355 -0.000415432 0
-0.000511646 -0.00040128 0
-0.000394697 -0.000481197 0
-0.000406302 -0.000455143 0
-0.000537257 -0.000388197 0
-0.000531099 -0.000407297 0
-0.000523982 -0.000388328 0
-0.000370063 -0.000472956 0
-0.000368 -0.0005 0
-0.00035308 -0.000485302 0
-0.0005072 -0.00037867 0
-0.000485506 -0.000383975 0
-0.000490949 -0.000359622 0
-0.000337127 -0.000484331 0
-0.000316 -0.0005 0
-0.000326495 -0.00047415 0
-0.00055 -0.00035 0
-0.000531201 -0.000370361 0
-0.000528367 -0.000346817 0
-0.000363898 -0.000448809 0
-0.000383315 -0.000460336 0
-3.26269e-05 -0.000415503 0
-5.99662e-05 -0.000409556 0
-5.46944e-05 -0.000429488 0
-0.000529747 0.000479887 0
-0.00055 0.0005 0
-0.00055 0.000475 0
-0.00055 0.00045 0
-0.000534834 0.000429171 0
-0.000526943 0.000442611 0
-0.000534026 0.000460176 0
-0.000531099 0.000407297 0
-0.000511672 0.000401178 0
-0.000516129 0.000420948 0
-0.000524 0.0005 0
-0.000505983 0.000484325 0
-0.000531201 0.000370361 0
-0.0005072 0.00037867 0
-0.000523982 0.000388328 0
-0.00048341 0.000469132 0
-0.000483679 0.000487539 0
-0.000528367 0.000346817 0
-0.00055 0.000325 0
-0.000525657 0.000328474 0
-0.000498 0.0005 0
-0.000530382 0.0003125 0
-0.000419243 0.000477545 0
-0.000440015 0.00047335 0
-0.000425917 0.000463678 0
-0.000435138 0.000262661 0
-0.000414982 0.000274462 0
-0.000435654 0.000285217 0
-0.000459 0.000484239 0
-0.000436852 0.000487027 0
-0.000446 0.0005 0
-0.000533308 0.000292503 0
-0.00055 0.000275 0
-0.000523377 0.000276953 0
-0.000425282 0.000446352 0
-0.000409368 0.000435728 0
-0.000406302 0.000455143 0
0.002009 0.000495 0
0.001998 0.0005 0
0.00199875 0.00049375 0
0.0019885 0.0004925 0
0.001972 0.0005 0
0.00197825 0.00049125 0
0.001968 0.00049 0
0.00195775 0.00048875 0
0.001946 0.0005 0
0.0019475 0.0004875 0
0.00193725 0.00048625 0
0.00192 0.0005 0
0.001927 0.000485 0
0.00191675 0.00048375 0
0.0019065 0.0004825 0
0.001894 0.0005 0
0.00189625 0.00048125 0
0.001886 0.00048 0
0.001868 0.0005 0
0.00187575 0.00047875 0
0.0018655 0.0004775 0
0.00185515 0.00048575 0
0.001842 0.0005 0
0.001845 0.000475 0
0.00185525 0.00047625 0
0.00182564 0.0004829 0
0.001816 0.0005 0
0.0018245 0.0004725 0
0.00183475 0.00047375 0
0.00181425 0.00047125 0
0.00180295 0.000482657 0
0.00179 0.0005 0
0.00179375 0.00046875 0
0.001804 0.00047 0
0.00178168 0.000480619 0
0.001764 0.0005 0
0.00177325 0.00046625 0
0.0017835 0.0004675 0
0.00176428 0.000476631 0
0.001763 0.000465 0
0.001738 0.0005 0
0.001751 0.000484164 0
0.00175275 0.00046375 0
0.00174025 0.000475632 0
0.001712 0.0005 0
0.00172615 0.000478449 0
0.001722 0.00046 0
0.00173225 0.00046125 0
0.0017015 0.0004575 0
0.00171243 0.00047381 0
0.00169554 0.000479999 0
0.001686 0.0005 0
0.00167507 0.000479751 0
0.00168498 0.000464861 0
0.00166 0.0005 0
0.0016558 0.000471459 0
0.00167135 0.000462887 0
0.001681 0.000455 0
0.0016605 0.0004525 0
0.00167075 0.00045375 0
0.00164059 0.000461599 0
0.0016394 0.000479551 0
0.00162881 0.00046615 0
0.00162975 0.00044875 0
0.00165025 0.00045125 0
0.00164 0.00045 0
0.00161754 0.000458641 0
0.00161722 0.000478101 0
0.00159956 0.000458294 0
0.00160925 0.00044625 0
0.0016195 0.0004475 0
0.00157667 0.000460322 0
0.00158875 0.00044375 0
0.00159194 0.000480155 0
0.001599 0.000445 0
0.0015785 0.0004425 0
0.00155808 0.000456757 0
0.00155647 0.000476701 0
0.00154059 0.000466642 0
0.00153756 0.000450083 0
0.00154839 0.000450446 0
0.00156825 0.00044125 0
0.00151954 0.000480508 0
0.00154052 0.00048477 0
0.00153 0.0005 0
0.00154775 0.00043875 0
0.00152142 0.000456625 0
0.00152821 0.000445753 0
0.0015375 0.0004375 0
0.001504 0.0005 0
0.00149644 0.000485168 0
0.00151787 0.000443178 0
0.00152725 0.00043625 0
0.00150675 0.00043375 0
0.001517 0.000435 0
0.00148119 0.000450887 0
0.00148072 0.000475756 0
0.00146584 0.000463516 0
0.00150008 0.00046396 0
0.00149351 0.00044543 0
0.0015061 0.000446252 0
0.001476 0.00043 0
0.00148625 0.00043125 0
0.00146492 0.000482975 0
0.00144888 0.000473562 0
0.00146676 0.000444259 0
0.00145255 0.000453656 0
0.00145652 0.000438669 0
0.00141401 0.000479821 0
0.001426 0.0005 0
0.0014 0.0005 0
0.00144374 0.000438862 0
0.0014555 0.0004275 0
0.001435 0.000425 0
0.00144525 0.00042625 0
0.00142746 0.000438121 0
0.00141288 0.000443191 0
0.00141707 0.000432778 0
0.0013921 0.000438992 0
0.00140355 0.00045932 0
0.00138302 0.00045922 0
0.00142912 0.000458869 0
0.00140592 0.000430037 0
0.0014145 0.0004225 0
0.00136458 0.00045869 0
0.00137106 0.00044063 0
0.001394 0.00042 0
0.00138259 0.000428915 0
0.00137484 0.000477094 0
0.00139166 0.000478902 0
0.0013586 0.000478984 0
0.00133449 0.000478649 0
0.00134717 0.000461848 0
0.00137256 0.000425134 0
0.00135323 0.000424541 0
0.00136325 0.00041625 0
0.00136122 0.00042876 0
0.00131206 0.000447284 0
0.00133168 0.000456738 0
0.00131773 0.000465243 0
0.00134756 0.000440343 0
0.00132747 0.000436463 0
0.00133483 0.000426786 0
0.00131081 0.00041867 0
0.00132382 0.000422815 0
0.00131507 0.00043122 0
0.00131059 0.000480123 0
0.0013325 0.0004125 0
0.0012915 0.0004075 0
0.0012982 0.000418199 0
0.00128915 0.000426216 0
0.00126366 0.000447574 0
0.00127331 0.000430908 0
0.00128781 0.000444872 0
0.00125336 0.000428376 0
0.00130218 0.000431077 0
0.00127894 0.000416344 0
0.00124774 0.000469608 0
0.00127668 0.000464148 0
0.00126591 0.00048331 0
0.00126722 0.000418415 0
0.00125768 0.000411931 0
0.00124326 0.000413546 0
0.0012505 0.0004025 0
0.00122408 0.000450118 0
0.00120276 0.000447432 0
0.0012139 0.000432235 0
0.00124336 0.000444132 0
0.00123056 0.000427595 0
0.00122977 0.000409049 0
0.0012185 0.000469217 0
0.00122676 0.000485947 0
0.00120525 0.000486094 0
0.00121479 0.000413153 0
0.00119547 0.000424221 0
0.00120249 0.000407448 0
0.00119925 0.00039625 0
0.00119346 0.000406114 0
0.00117479 0.000447279 0
0.00114726 0.000445259 0
0.0011571 0.000427814 0
0.00119443 0.000466611 0
0.00117447 0.000421596 0
0.00118421 0.00040752 0
0.00117409 0.000404437 0
0.00116775 0.000470073 0
0.001179 0.0004855 0
0.00115473 0.000484802 0
0.0011685 0.0003925 0
0.00117875 0.00039375 0
0.00115454 0.000400551 0
0.001148 0.00039 0
0.00115825 0.00039125 0
0.00111703 0.000423398 0
0.00113786 0.000426731 0
0.00112589 0.000443871 0
0.00113234 0.000406671 0
0.00114754 0.000413371 0
0.001106 0.000442326 0
0.00109703 0.000424261 0
0.0011275 0.0003875 0
0.00113775 0.00038875 0
0.00110211 0.000480875 0
0.00108244 0.000471951 0
0.00109312 0.000458413 0
0.00111755 0.000399116 0
0.0010944 0.000392972 0
0.00110415 0.000405876 0
0.00108839 0.000407536 0
0.00106472 0.000476905 0
0.00107274 0.000457868 0
0.00108011 0.000392415 0
0.00106885 0.000404365 0
0.00106625 0.000388708 0
0.00105286 0.000419254 0
0.00105055 0.000395469 0
0.00104215 0.000439764 0
0.00106346 0.000440629 0
0.00100945 0.000451249 0
0.00102825 0.00045614 0
0.00101189 0.000468452 0
0.00107625 0.00038125 0
0.00105575 0.00037875 0
0.001066 0.00038 0
0.00103352 0.000476905 0
0.00101803 0.00048465 0
0.00103685 0.000389398 0
0.0010245 0.00038825 0
0.00103525 0.00037625 0
0.00101092 0.000399779 0
0.00101267 0.000382619 0
0.00101382 0.00042025 0
0.00103187 0.000405286 0
0.00103359 0.000424605 0
0.000987383 0.00045447 0
0.000999411 0.000435161 0
0.0009744 0.000433145 0
0.0010045 0.0003725 0
0.00101475 0.00037375 0
0.000970845 0.000465215 0
0.000952614 0.000467664 0
0.000961768 0.000449944 0
0.00099729 0.000387704 0
0.000978901 0.00039598 0
0.000985823 0.000381492 0
0.000962289 0.000393709 0
0.000974259 0.000381279 0
0.00097375 0.00036875 0
0.000963045 0.000376631 0
0.000958 0.0005 0
0.000932 0.0005 0
0.000947542 0.00048457 0
0.000949675 0.000385245 0
0.000936214 0.000389472 0
0.000940006 0.000374906 0
0.000966411 0.000412573 0
0.000944241 0.000407079 0
0.000903569 0.000424993 0
0.000921701 0.000402409 0
0.000927439 0.000427744 0
0.000889795 0.000409067 0
0.000903071 0.00040248 0
0.000925447 0.000377721 0
0.00093275 0.00036375 0
0.000907708 0.000387127 0
0.000911303 0.000370839 0
0.000911933 0.000455145 0
0.000930678 0.000473279 0
0.000911886 0.000482603 0
0.000887724 0.000388076 0
0.000899595 0.000375116 0
0.000902 0.00036 0
0.000889241 0.00036954 0
0.000836977 0.000459472 0
0.000836223 0.000483578 0
0.000820467 0.000474142 0
0.000871227 0.000403557 0
0.000861 0.000355 0
0.000868368 0.000365714 0
0.00085484 0.00036588 0
0.000847735 0.000402845 0
0.000823121 0.000421599 0
0.000826582 0.000398147 0
0.000846943 0.00042454 0
0.000838832 0.000378613 0
0.000835569 0.000363808 0
0.000844098 0.00036291 0
0.00085075 0.00035375 0
0.000851465 0.000477164 0
0.00083025 0.00035125 0
0.000822824 0.000368659 0
0.00081446 0.000357362 0
0.000805884 0.000371794 0
0.000753471 0.000477524 0
0.000738313 0.000473927 0
0.000739102 0.000461526 0
0.00079826 0.000358588 0
0.000788607 0.000376287 0
0.000781733 0.000357987 0
0.000816783 0.000384471 0
0.000807975 0.000404095 0
0.000752138 0.000404775 0
0.000767682 0.000417043 0
0.000749617 0.000421803 0
0.000752903 0.000384008 0
0.000738293 0.000393136 0
0.000772614 0.000394048 0
0.00076863 0.000371878 0
0.000765995 0.000354121 0
0.000779 0.000345 0
0.00071811 0.000453059 0
0.000738069 0.000437967 0
0.000752085 0.000365972 0
0.000728123 0.000374583 0
0.000741845 0.000354664 0
[...]
CELL_DATA 58684
VECTORS velocity DOUBLE
65.2593 0.274198 0
68.8792 0.000307993 0
68.8498 0.000314826 0
68.8703 0.0107346 0
68.8361 -0.014071 0
68.8756 0.00122061 0
68.8415 -0.000673491 0
67.7952 0.0145316 0
67.8165 0.0583109 0
67.8626 0.0138691 0
67.9666 0.0153892 0
68.0656 -0.0107711 0
67.8074 0.177799 0
68.1267 -0.00684625 0
67.8185 0.33929 0
68.3385 -0.0210347 0
67.8073 0.378602 0
68.7475 -0.0660003 0
67.8419 0.354218 0
69.163 -0.0329924 0
67.7854 0.355789 0
68.6941 -0.158258 0
71.6426 -1.15577 0
67.8029 -0.0518943 0
67.8269 -0.202541 0
67.8031 -0.10201 0
67.8153 -0.36804 0
67.8202 -0.0571817 0
67.8112 -0.433677 0
67.8484 -0.0585758 0
67.8062 -0.358025 0
67.8473 -0.0378152 0
67.8344 -0.366999 0
68.2188 0.00122618 0
68.0742 0.399016 0
68.0743 -0.000760409 0
67.7955 -0.320664 0
68.324 0.0680597 0
68.8531 -0.0140537 0
68.8458 0.000493091 0
68.8475 0.0105904 0
68.8465 -0.0086091 0
68.8213 0.00204178 0
68.8245 0.00942089 0
68.8268 0.0029405 0
68.8224 -0.00719361 0
68.81 0.00231301 0
68.8209 0.00633631 0
68.8241 -0.00345729 0
68.8065 0.00761248 0
68.8226 0.00972867 0
68.8285 0.00272033 0
68.8321 -0.00157069 0
68.8295 0.0091876 0
68.8487 0.0100793 0
68.8588 0.00676711 0
68.8538 0.0167795 0
68.8782 0.0164677 0
68.8898 0.0110843 0
68.9045 0.0092122 0
68.9057 0.0112205 0
68.9256 0.00861582 0
68.9534 0.0127248 0
68.982 0.0103211 0
68.9861 0.0206968 0
68.9968 0.0143053 0
69.0077 0.0276821 0
69.0451 0.0150904 0
69.0594 0.0172279 0
69.0729 0.0291991 0
69.1093 0.0211035 0
69.1262 0.016728 0
69.1452 0.0218781 0
69.1743 0.0214923 0
69.2008 0.0165617 0
69.2259 0.0210916 0
69.2416 0.0171885 0
69.2778 0.0215487 0
69.2919 0.0308901 0
69.3475 0.0469957 0
69.3072 0.0297944 0
69.3574 0.0141495 0
69.3916 0.0114844 0
69.3724 0.0407706 0
69.4332 0.0257115 0
69.4136 0.0373271 0
69.4014 0.0492119 0
69.4334 0.0425219 0
69.4894 0.0449971 0
69.5044 0.0611481 0
69.4729 0.0479523 0
69.494 0.054399 0
69.5203 0.0423867 0
69.5127 0.0451009 0
69.5411 0.0591702 0
69.575 0.0681136 0
69.5573 0.045416 0
69.5727 0.0633341 0
69.59 0.0777884 0
69.5993 0.0579805 0
69.634 0.0786509 0
69.6124 0.0762019 0
69.6282 0.0252611 0
69.6476 0.0855331 0
69.656 0.0794552 0
69.6621 0.0899922 0
69.6673 0.0160255 0
69.6701 0.0912445 0
69.6866 0.0949425 0
69.7361 0.0726907 0
69.7135 0.0714318 0
69.7001 0.0887657 0
69.7503 0.111498 0
69.753 0.0579599 0
69.7769 0.0970065 0
69.7658 0.0689277 0
69.8332 0.0109941 0
69.8087 0.107108 0
69.8263 0.125986 0
69.865 0.0909238 0
69.9053 0.0831729 0
69.8508 0.0612678 0
69.8897 0.106631 0
69.9505 0.0687198 0
69.9322 0.114295 0
69.9133 0.0588128 0
69.9518 0.0907637 0
70.0127 0.0397787 0
69.9592 0.101887 0
70.0061 0.0956744 0
70.0945 0.0432266 0
70.0625 0.0781699 0
70.0571 0.0436073 0
70.1111 0.0675786 0
70.0822 0.0279255 0
70.0789 0.08139 0
70.1694 0.0539519 0
70.2406 0.0244831 0
70.2784 0.0154276 0
70.1803 0.0419936 0
70.2078 0.0318575 0
70.2658 0.00149416 0
70.2686 0.00833761 0
70.3017 -0.0113102 0
70.4256 -0.0497139 0
70.3476 -0.00513221 0
70.3209 -0.0132359 0
70.3519 -0.0359561 0
70.4112 -0.00905027 0
70.4385 -0.0914429 0
70.434 -0.11849 0
70.5841 -0.118994 0
70.5299 -0.0644601 0
70.4778 -0.121692 0
70.4964 -0.158079 0
70.571 -0.0331248 0
70.4975 -0.188483 0
70.5583 -0.248412 0
70.6637 -0.221444 0
70.5907 -0.235825 0
70.6914 -0.273861 0
70.5909 -0.312344 0
70.7053 -0.118565 0
70.591 -0.314543 0
70.6335 -0.383053 0
70.7336 -0.147644 0
70.6711 -0.489932 0
70.6982 -0.477254 0
70.716 -0.34994 0
70.7319 -0.278425 0
70.6513 -0.508074 0
70.6611 -0.555496 0
70.7317 -0.14387 0
70.6615 -0.639489 0
70.6867 -0.658908 0
70.6802 -0.506628 0
70.7216 -0.348247 0
70.7149 -0.428813 0
70.6744 -0.735227 0
70.6603 -0.294738 0
70.6756 -0.739767 0
70.6547 -0.759364 0
70.6615 -0.84715 0
70.6259 -0.0322595 0
70.671 -0.858594 0
70.6326 -0.702333 0
70.6121 -0.644199 0
70.6086 -0.732627 0
70.6614 -0.939649 0
70.655 -0.947788 0
70.614 -0.236227 0
70.6342 -0.935651 0
70.6583 -1.04661 0
70.6643 -1.00722 0
70.5737 -0.24413 0
70.6369 -0.826879 0
70.7272 -1.13535 0
70.7109 -0.866826 0
70.6316 -0.747768 0
70.7235 -1.17532 0
70.742 -1.17808 0
70.6179 -0.224883 0
70.7708 -1.26649 0
70.7986 -1.19983 0
70.9503 -0.243527 0
70.8554 -1.28761 0
70.764 -0.946641 0
70.9573 -0.832961 0
71.0312 -1.05558 0
70.9214 -1.16919 0
70.9326 -1.37833 0
70.9885 -0.513862 0
71.1019 -1.31585 0
71.0743 -1.50212 0
71.3103 -1.50936 0
71.3118 -0.0227809 0
71.2459 -1.25517 0
71.3142 -1.55711 0
71.1508 -0.400995 0
71.3937 -1.61933 0
71.591 -0.951514 0
71.477 -1.6889 0
71.8672 -0.531765 0
71.6914 -1.45274 0
71.6442 -1.68094 0
71.7162 -0.290921 0
71.8912 -1.72893 0
72.1434 -1.67916 0
71.9445 -1.45536 0
72.0718 -0.900764 0
72.1958 -1.89614 0
72.3159 -0.784578 0
72.6939 -0.133647 0
72.0793 -1.52405 0
72.3685 -1.8627 0
72.5289 -1.9957 0
72.6953 -0.68159 0
72.6981 -1.7364 0
72.9503 -1.88793 0
72.9229 -0.233901 0
73.1439 -1.85455 0
73.0068 -2.01986 0
72.8979 -1.54931 0
73.0904 -0.803261 0
73.2157 -0.947082 0
73.2073 -2.05326 0
73.4467 -0.0215064 0
73.3374 -2.15992 0
73.4959 -2.08984 0
73.4316 -2.17947 0
73.7059 -0.624493 0
73.6565 -1.85205 0
73.8566 -1.95238 0
73.7689 -0.0235065 0
73.9369 -2.23309 0
74.1779 -2.06304 0
73.9172 -1.47852 0
73.8713 -0.73362 0
74.0975 -2.23514 0
74.0161 -0.909259 0
74.0126 -0.115829 0
74.1227 -1.72522 0
74.3027 -2.19603 0
74.4558 -2.1525 0
74.157 -0.451323 0
74.5948 -1.76905 0
74.516 -2.09552 0
74.1302 -0.215948 0
74.609 -2.19264 0
74.7913 -2.1117 0
74.77 -1.31158 0
74.039 -0.0252677 0
74.9489 -1.98883 0
74.6472 -0.725312 0
74.8518 -0.757881 0
74.9458 -1.76609 0
74.8456 -1.35829 0
75.304 -1.69306 0
74.1803 -0.230289 0
75.2368 -1.8415 0
75.1711 -1.12244 0
75.4996 -1.36234 0
74.0991 -0.088107 0
75.6533 -0.714614 0
75.5429 -0.46704 0
73.3752 0.032236 0
75.8056 -1.14403 0
75.9691 -0.601506 0
74.3092 0.172321 0
73.9939 -0.0139686 0
75.1117 -0.386266 0
75.9987 -0.113587 0
73.5482 0.0852161 0
75.7935 0.602441 0
75.9689 -0.0980756 0
75.9774 0.112738 0
73.1625 0.526537 0
74.9535 0.871593 0
75.8867 0.923771 0
73.0932 0.0730151 0
75.7297 1.3395 0
75.6685 1.38333 0
75.1009 2.63498 0
71.9625 0.155135 0
75.8102 2.32451 0
74.338 1.51687 0
72.8833 0.64555 0
72.901 1.45556 0
75.7033 2.67309 0
75.1662 3.19094 0
72.2542 0.289373 0
75.0623 3.7365 0
68.8181 0.0128509 0
68.8103 -0.000128762 0
68.8101 -0.0110965 0
68.8078 0.00918316 0
68.7821 -0.00230874 0
68.784 -0.00992537 0
68.7858 -0.0013095 0
68.7788 0.00942798 0
68.7676 -0.0028555 0
68.7758 -0.00833172 0
68.7796 0.0015187 0
68.7617 -0.00776475 0
68.7753 -0.0109567 0
68.7813 -0.00472881 0
68.7846 0.0004776 0
68.7808 -0.00939442 0
68.7989 -0.012554 0
68.8082 -0.00709811 0
68.8021 -0.0170868 0
68.8246 -0.0199015 0
68.8361 -0.0138738 0
68.8611 -0.0198866 0
68.8503 -0.0110449 0
68.879 -0.0208991 0
68.9029 -0.0319529 0
68.8962 -0.0156747 0
68.9345 -0.0189126 0
68.9454 -0.0314303 0
68.9798 -0.0266158 0
68.9525 -0.00456864 0
69.0078 -0.0320699 0
69.0442 -0.0289494 0
69.0233 -0.00658426 0
69.1029 -0.030397 0
69.1131 -0.0263196 0
69.1316 -0.0340899 0
69.0877 -0.0160372 0
69.1518 -0.0264659 0
69.1916 -0.0432653 0
69.1655 -0.020315 0
69.2408 -0.0471427 0
69.252 -0.0158778 0
69.2622 -0.0523122 0
69.2361 -0.0243681 0
69.2863 -0.0477771 0
69.3108 -0.0567696 0
69.34 -0.0309626 0
69.3189 -0.0442007 0
69.3453 -0.0653992 0
69.3618 -0.0586749 0
69.3839 -0.0494681 0
69.3894 -0.051651 0
69.4015 -0.0703365 0
69.4202 -0.0771678 0
69.4291 -0.0482259 0
69.4323 -0.0775865 0
69.4454 -0.0803554 0
69.471 -0.0538063 0
69.4435 -0.0547119 0
69.4716 -0.0907751 0
69.4835 -0.0918476 0
69.4942 -0.0702848 0
69.4876 -0.0480466 0
69.5087 -0.0878624 0
69.4481 -0.0217114 0
69.5367 -0.0982377 0
69.5525 -0.108152 0
69.5369 -0.097379 0
69.5213 -0.0621197 0
69.5703 -0.114087 0
69.5765 -0.104169 0
69.6107 -0.0585051 0
69.5655 -0.0964022 0
69.6199 -0.116509 0
69.6366 -0.122025 0
69.5618 -0.0292309 0
69.6219 -0.0928193 0
69.6751 -0.132251 0
69.6242 -0.0745127 0
69.6852 -0.117285 0
69.7339 -0.121133 0
69.6966 -0.100258 0
69.7348 -0.0407908 0
69.7419 -0.108564 0
69.7624 -0.11605 0
69.7515 -0.0224812 0
69.8018 -0.107114 0
69.7721 -0.0951466 0
69.8424 -0.0805197 0
69.7875 -0.0741283 0
69.8441 -0.0937201 0
69.9353 -0.0666894 0
69.9359 -0.0258512 0
69.901 -0.0594328 0
69.9649 -0.0530408 0
69.9606 -0.0477257 0
69.9033 -0.0378003 0
69.9939 -0.0429951 0
70.037 -0.0179841 0
70.0694 -0.00673063 0
70.1384 0.0025326 0
70.1094 0.0143257 0
70.103 0.0197922 0
70.0817 -0.00400517 0
70.1543 0.052565 0
70.1896 0.0785905 0
70.3522 0.0445677 0
70.2383 0.0476327 0
70.271 0.142083 0
70.2964 0.139216 0
70.2591 0.0382704 0
70.3204 0.179179 0
70.3566 0.221415 0
70.5003 0.112992 0
70.3686 0.172375 0
70.4412 0.310678 0
70.4687 0.264505 0
70.4308 0.0628313 0
70.4616 0.330616 0
70.5349 0.459408 0
70.6013 0.128714 0
70.5428 0.416696 0
70.6708 0.205641 0
70.6049 0.45735 0
70.6563 0.237334 0
70.589 0.546868 0
70.6228 0.626571 0
70.7201 0.177482 0
70.6292 0.60626 0
70.6768 0.739955 0
70.739 0.232397 0
70.6538 0.501837 0
70.6844 0.661457 0
70.6877 0.783051 0
70.7797 0.11807 0
70.701 0.741097 0
70.7523 0.929102 0
70.7232 0.814024 0
70.7419 0.275018 0
70.7617 0.834569 0
70.7677 0.337733 0
70.7294 0.698073 0
70.7685 0.913808 0
70.8205 1.01937 0
70.7993 1.04113 0
70.768 0.0392749 0
70.8627 1.14047 0
70.8473 1.12023 0
70.8122 0.967755 0
70.7549 0.509969 0
70.7933 0.535614 0
70.8576 1.08374 0
70.7693 0.324055 0
70.9255 1.17292 0
70.8837 1.13731 0
70.871 1.01945 0
70.7436 0.304544 0
70.9099 1.10674 0
71.0609 1.28923 0
70.7929 0.51574 0
70.8252 0.580863 0
70.9324 1.05326 0
71.1359 1.27966 0
70.7753 0.375294 0
71.1732 1.32782 0
71.1816 1.27382 0
70.8664 0.268744 0
71.3183 1.35321 0
71.3456 1.31097 0
71.3337 1.10325 0
71.0599 0.524627 0
71.0574 0.613111 0
71.2683 1.25034 0
70.9706 0.422088 0
71.4687 1.41106 0
71.5099 1.32419 0
71.4644 1.2117 0
71.1164 0.205379 0
71.6832 1.36768 0
71.6875 1.3876 0
71.4821 0.830073 0
71.8105 1.10686 0
71.5191 0.68883 0
71.7338 1.32748 0
71.3962 0.442288 0
71.9406 1.48865 0
71.9574 1.45197 0
71.4131 0.346101 0
72.0136 1.36131 0
72.2443 1.52658 0
72.1367 1.50309 0
72.1241 0.393651 0
72.5194 1.61084 0
72.5642 1.70606 0
71.9669 1.0924 0
72.4665 1.35803 0
72.0929 0.698059 0
72.7711 1.83395 0
72.3969 0.231871 0
72.8164 1.81998 0
72.8309 1.78018 0
72.1391 0.17939 0
72.7536 1.64822 0
73.1234 1.98999 0
73.2219 2.04058 0
72.9338 0.589607 0
73.2906 2.06957 0
73.363 2.21746 0
72.7312 1.2888 0
73.5597 1.63528 0
73.1797 0.59639 0
73.5501 2.30496 0
73.294 0.233666 0
73.6919 2.30594 0
73.804 2.3425 0
73.0481 0.139894 0
73.7695 2.03554 0
74.0987 2.47569 0
74.3117 2.45599 0
73.5873 0.52896 0
74.1765 2.3403 0
74.4629 2.58878 0
73.9191 1.81649 0
74.6226 1.74771 0
73.7755 0.441986 0
74.3284 2.31975 0
73.9249 0.192159 0
74.8044 2.60969 0
74.8856 2.41577 0
73.7651 0.125317 0
74.8125 1.913 0
75.0976 2.21647 0
75.363 2.12288 0
74.1763 0.230917 0
75.5047 2.00729 0
75.5949 1.8203 0
74.3533 0.421422 0
75.6442 1.90714 0
75.2203 0.965259 0
74.397 0.732973 0
74.2067 0.544675 0
75.8113 1.67013 0
75.7593 1.07143 0
76.1165 1.07451 0
74.0911 0.0306208 0
75.7325 0.561388 0
76.1899 0.37891 0
74.1798 0.109739 0
75.5332 0.515417 0
76.2605 -0.157193 0
75.2848 -0.0585523 0
74.2562 0.120412 0
76.1964 -0.484521 0
76.1663 -0.817421 0
75.0332 0.383844 0
74.9981 -1.16872 0
73.6465 -1.15396 0
76.0333 -0.939349 0
73.5647 -0.0696328 0
76.0537 -1.72162 0
74.6184 4.21726 0
75.0052 3.66338 0
71.6044 1.05324 0
74.6089 4.18847 0
73.2448 3.92968 0
74.0967 4.68591 0
71.7762 0.37979 0
73.6047 4.87109 0
72.9989 4.88802 0
71.2622 0.543744 0
72.9728 5.18847 0
76.0386 -2.08915 0
73.7191 -0.0257881 0
75.9208 -2.38751 0
75.1632 -2.76549 0
74.6177 -2.26088 0
73.2318 -0.0886144 0
75.3467 -3.25978 0
72.3574 4.83773 0
74.9277 -4.19333 0
73.2275 -0.592669 0
74.7679 -4.04926 0
74.1299 -4.76546 0
70.8675 1.41731 0
73.9507 -4.68041 0
74.4964 -2.15799 0
74.3879 -4.14223 0
73.0832 -2.95032 0
72.0528 -0.433185 0
73.7831 -4.23803 0
73.3707 -4.57538 0
71.9981 5.13216 0
73.3654 -4.60737 0
72.4946 -0.203849 0
72.7979 -4.88751 0
72.4054 -5.38242 0
71.7416 -0.282429 0
71.8026 -5.5371 0
72.0763 -3.91982 0
70.8539 -0.412093 0
71.2255 -5.66694 0
71.278 -3.03966 0
71.9668 -2.18978 0
71.6526 -4.81283 0
70.9725 -5.12824 0
72.2895 2.4781 0
70.5431 0.338659 0
71.7877 1.63561 0
71.1379 -0.0503648 0
70.6419 -5.54909 0
71.8719 4.88922 0
70.4757 0.23401 0
71.4332 4.15137 0
70.1237 -5.53655 0
70.9412 -1.03152 0
69.7852 -3.97949 0
71.3911 5.59996 0
70.0019 1.18734 0
71.3821 5.54295 0
70.2074 4.78553 0
70.1684 0.230706 0
70.6013 5.00511 0
70.0954 -4.14643 0
70.8068 -0.298044 0
69.6028 -5.67331 0
69.6764 -5.48739 0
70.766 5.34226 0
69.6769 5.22174 0
69.8898 0.0264551 0
70.2708 5.34534 0
69.2619 3.20757 0
69.8151 1.32119 0
69.0067 -5.64006 0
69.9939 -0.63797 0
69.2571 -5.52804 0
68.78 5.5066 0
68.6372 -5.19373 0
69.5999 -0.568541 0
69.2215 -1.97042 0
67.9317 -4.94162 0
69.9766 -2.59192 0
67.7939 -4.74372 0
69.3766 -0.139769 0
67.1888 -4.54094 0
69.0001 1.60833 0
69.5586 0.231589 0
68.57 4.63143 0
69.2074 0.0400449 0
68.3228 5.44596 0
68.265 5.11457 0
68.9496 0.0908256 0
67.8047 4.43407 0
68.6936 0.0427318 0
68.1566 -4.2068 0
69.3767 -0.265671 0
69.0777 3.92825 0
68.025 0.0387488 0
67.604 4.14822 0
67.1449 -4.53678 0
69.4691 -0.116043 0
65.9832 -3.7999 0
67.9445 0.244778 0
66.5393 -3.75565 0
68.5364 1.40647 0
67.7988 -0.16605 0
68.723 -3.29652 0
67.7885 0.302933 0
66.1102 -3.53521 0
67.1807 3.71199 0
67.2466 -2.61159 0
67.8098 0.449426 0
66.3812 -2.96254 0
68.0435 1.82394 0
66.5042 1.24013 0
66.8555 3.16435 0
67.9468 -0.421723 0
66.2729 -3.31945 0
67.8789 -0.117097 0
66.6819 4.40082 0
67.8617 -1.35906 0
67.7905 0.159649 0
66.0875 -3.00819 0
66.6054 3.95651 0
67.9846 0.10574 0
66.5773 3.02577 0
66.3974 2.98806 0
67.9248 -0.0313336 0
65.8767 2.69173 0
65.459 -2.65445 0
67.8844 0.147047 0
65.1972 -2.68468 0
67.0986 -1.15618 0
67.847 0.114794 0
64.9255 -1.81243 0
65.8045 3.41694 0
68.0302 0.177273 0
66.8443 2.05172 0
65.3224 -1.57276 0
67.9717 -0.0338768 0
64.8252 -1.49074 0
64.9724 2.49162 0
68.004 0.0834959 0
65.2649 2.35544 0
65.532 1.87602 0
67.8229 0.0157616 0
64.9318 2.05699 0
65.8232 -0.882138 0
68.0158 -0.126182 0
65.2309 -0.814738 0
64.3304 -0.502956 0
67.625 -0.530485 0
64.5237 -0.416662 0
67.3634 0.674898 0
67.9398 0.0178164 0
66.5848 1.51901 0
64.8595 1.63584 0
68.004 0.0461481 0
64.4127 1.09226 0
67.9089 -0.0802215 0
67.8387 0.0522642 0
64.4001 -0.0820182 0
64.7753 0.0293471 0
67.9356 -0.00824851 0
66.5709 0.222999 0
65.0642 0.399708 0
67.8943 -0.0022032 0
67.2774 -3.64257 0
67.8917 0.358853 0
67.8318 -0.248887 0
67.8816 4.57568 0
68.2666 -5.18036 0
70.3625 -0.581166 0
69.7667 0.541162 0
70.0509 5.64792 0
67.9145 0.0108128 0
65.4534 3.27538 0
65.0323 -1.79819 0
67.8412 0.183132 0
67.893 0.238767 0
67.6373 -2.13914 0
67.9731 0.0518681 0
67.831 -0.166853 0
67.9539 0.0106662 0
64.8078 1.44059 0
69.1715 0.223378 0
68.3862 0.802961 0
68.6165 -0.642587 0
69.6445 -0.372876 0
71.7721 -0.654524 0
72.1177 -5.38677 0
73.2018 4.89513 0
71.5841 0.229216 0
67.9801 0.965887 0
68.7741 5.28557 0
68.0651 -4.6716 0
68.9161 -1.20253 0
67.4161 -0.883328 0
65.6648 -0.0671977 0
66.6903 3.88303 0
68.1599 1.08609 0
68.0175 -0.958574 0
65.5308 -3.04417 0
75.7737 -2.86042 0
73.0851 -0.261269 0
72.825 0.314041 0
75.7616 1.9176 0
67.9495 -0.0229453 0
67.7698 0.17244 0
67.8254 -0.389252 0
68.8574 0.350259 0
70.7518 0.441916 0
70.6913 2.56704 0
70.0204 -1.204 0
71.1771 -0.997188 0
70.1273 3.14126 0
71.6801 5.22513 0
70.979 -5.64473 0
70.5369 -1.18911 0
72.128 0.772586 0
73.1537 2.79377 0
72.1418 -1.49229 0
72.4923 -0.00612069 0
74.1908 0.157347 0
76.1655 0.829684 0
75.5581 -1.41907 0
73.6741 -0.0129318 0
73.9355 0.0302933 0
74.9209 2.49445 0
74.7834 -1.96998 0
74.2066 -0.276186 0
68.8513 -0.71229 0
68.3588 -0.177584 0
68.342 0.542628 0
69.0489 0.46326 0
68.2104 0.49648 0
67.8156 -0.430996 0
67.8063 0.327989 0
68.1264 -0.343556 0
73.5879 0.250891 0
74.5223 0.391349 0
73.9087 -0.224585 0
73.8329 0.0170573 0
66.6514 -0.603023 0
67.9348 -0.0246806 0
67.9187 -0.174749 0
67.9306 0.0673806 0
67.8574 -0.0972193 0
68.0052 0.273833 0
73.8658 2.36102 0
73.4542 0.383301 0
73.892 -0.0302215 0
73.9084 -2.14375 0
70.2445 -0.0331276 0
69.8772 -1.69645 0
70.3326 1.10307 0
69.8715 0.259401 0
67.8637 2.4509 0
67.2231 4.88609 0
67.1727 -4.08105 0
68.2174 -1.83849 0
68.6178 -1.09725 0
67.7354 -1.30515 0
67.8796 2.88125 0
68.2459 1.26375 0
74.232 -0.356541 0
74.1178 -0.14173 0
74.1719 0.155391 0
74.7436 1.49722 0
68.9126 -3.46445 0
69.6095 -3.39117 0
69.5008 2.93939 0
69.5765 5.63796 0
68.6605 -2.35708 0
69.5413 -1.30446 0
69.3764 1.85128 0
69.0763 0.784651 0
73.0843 2.02792 0
72.7065 0.287302 0
73.2465 -0.0298219 0
72.7996 -1.98141 0
67.7922 0.647581 0
67.8719 -0.00290494 0
73.9237 -0.273342 0
74.4024 -1.257 0
74.1523 0.95443 0
73.5906 0.13962 0
68.6995 -0.418962 0
68.2944 -0.567241 0
68.9767 0.910757 0
68.1376 0.108868 0
67.8017 0.368797 0
68.0586 0.0133669 0
67.8508 -0.33738 0
67.8211 -0.332542 0
65.1464 1.17877 0
67.4399 0.997022 0
72.6147 -1.71326 0
74.9683 -3.75791 0
75.3949 3.07366 0
72.3416 1.15372 0
67.2134 -1.35034 0
65.5755 -1.79003 0
71.7768 0.292126 0
72.0179 1.4481 0
70.92 0.162721 0
71.6468 1.4195 0
72.0388 -1.71218 0
71.9357 -0.278654 0
71.142 -1.45734 0
71.1024 -0.0283446 0
73.416 -0.502468 0
73.4273 -1.29814 0
73.1419 0.846219 0
72.9573 0.020293 0
67.8979 0.00647732 0
68.0041 0.221197 0
67.1026 0.340629 0
65.3382 0.597493 0
67.993 -0.051286 0
67.8664 0.0200429 0
67.8793 0.215811 0
67.7996 -0.41365 0
76.1686 -0.505014 0
73.9288 -0.539441 0
74.6243 0.60568 0
75.8854 -0.576882 0
67.879 0.0454384 0
67.9748 0.0956541 0
67.815 -0.148774 0
68.1866 0.0295474 0
72.5302 -0.422888 0
72.445 -1.06895 0
72.4726 0.675583 0
71.9605 0.207398 0
70.8451 0.414419 0
71.0181 1.11535 0
70.8274 -1.32636 0
70.694 -0.339993 0
68.3532 -0.283783 0
69.0783 -1.12231 0
68.7298 0.842329 0
68.4093 0.584779 0
68.8649 1.59276 0
67.8443 1.12216 0
68.1401 -1.04255 0
68.5652 -1.52007 0
74.6126 0.523585 0
75.037 2.12804 0
75.0036 -1.84152 0
74.8473 -0.620331 0
67.9625 -0.552474 0
68.0064 -0.65285 0
68.0446 0.459695 0
67.7469 0.821122 0
71.0178 1.26968 0
70.7844 0.437528 0
70.5953 -0.258996 0
70.6898 -1.06072 0
71.8322 2.50365 0
73.2234 4.29777 0
72.7421 -5.30226 0
72.2199 -1.87839 0
65.9623 -2.13647 0
67.6161 -2.05779 0
71.5227 -1.79083 0
71.6248 -0.587788 0
71.0206 0.258513 0
72.5234 1.58031 0
65.6832 3.10542 0
67.1562 1.6934 0
71.4518 -0.110405 0
71.6412 -1.12195 0
71.6034 0.653004 0
71.5064 0.179849 0
73.3016 -0.117964 0
73.2925 -0.595592 0
73.5909 0.748504 0
72.8693 0.105867 0
70.7967 0.850123 0
70.1573 0.214928 0
70.5486 -0.199438 0
70.7927 -1.92115 0
74.0328 1.13202 0
73.9693 2.20183 0
74.3408 -2.10159 0
74.4885 -0.940101 0
70.3841 -2.4392 0
70.8175 -1.11813 0
70.5638 1.65764 0
71.9321 3.68967 0
70.7759 0.920321 0
70.755 0.1865 0
70.55 -0.255874 0
70.6701 -0.814518 0
70.7884 -0.420092 0
70.9505 -0.0219771 0
71.0845 0.211213 0
71.0132 0.946738 0
69.545 0.249093 0
69.3612 0.651157 0
69.4758 -0.571722 0
69.9172 -0.187684 0
70.161 1.73237 0
69.4233 1.02276 0
68.8402 -1.56045 0
68.284 -1.60312 0
74.1973 0.147357 0
74.0723 0.0671298 0
73.9414 -0.0431187 0
74.4539 -0.324428 0
69.1782 2.33225 0
69.6424 1.47013 0
69.0997 -0.387883 0
68.9964 -0.15002 0
68.8841 0.129137 0
69.3806 0.436338 0
67.1487 -0.520106 0
67.8517 -0.721829 0
75.924 -1.4549 0
74.0954 -0.729899 0
73.9249 1.79323 0
75.8841 1.24167 0
67.9648 -0.0993633 0
67.7977 0.2134 0
67.8434 -0.165278 0
68.0221 0.121509 0
68.0835 -0.0132976 0
68.1728 0.126645 0
68.2738 -0.0424617 0
68.4206 -0.0108131 0
66.2855 -0.129168 0
64.389 0.171587 0
71.6433 1.82021 0
73.7449 1.33169 0
72.9377 -1.22196 0
73.5834 -2.7886 0
67.8349 1.27402 0
67.6248 0.728239 0
67.8096 -0.00159106 0
68.0108 0.00727522 0
69.4264 4.49928 0
68.1897 2.44291 0
69.2327 -2.67679 0
68.2961 -5.3834 0
67.8289 0.500175 0
67.9742 0.0899073 0
73.1421 1.09907 0
73.2479 2.12843 0
73.2357 -1.99801 0
73.4051 -0.455705 0
70.5547 -0.296173 0
70.5928 -0.191598 0
70.8229 0.172166 0
70.8999 1.00634 0
75.5221 -1.31808 0
75.0465 -0.157766 0
74.9964 0.857444 0
75.9196 1.38039 0
67.9539 0.0957539 0
67.2984 -1.03834 0
68.1744 0.68205 0
68.3419 1.06162 0