# vtk DataFile Version 3.0
Unstructured Grid for Triangles
ASCII
DATASET UNSTRUCTURED_GRID
POINTS 29612 DOUBLE
-0.000272397 1.23686e-05 0
-0.000295789 9.5838e-06 0
-0.000277865 -3.1235e-06 0
0.002024 0.0005 0
0.00203975 0.00049875 0
0.00205 0.0005 0
0.00203975 -0.00049875 0
0.002024 -0.0005 0
0.00205 -0.0005 0
0.0020295 0.0004975 0
0.0020295 -0.0004975 0
0.00201925 0.00049625 0
0.00201925 -0.00049625 0
-0.000529747 -0.000479887 0
-0.00055 -0.0005 0
-0.000524 -0.0005 0
-0.000505983 -0.000484325 0
-0.000498 -0.0005 0
-0.000472 -0.0005 0
-0.000483864 -0.000487761 0
-0.000446 -0.0005 0
-0.000459 -0.000484239 0
-0.000429453 -0.000424878 0
-0.000447486 -0.000420717 0
-0.000441829 -0.000436609 0
-0.000512578 -0.000462101 0
-0.000493078 -0.000453594 0
-0.00050706 -0.000439006 0
-0.000419243 -0.000477545 0
-0.000440307 -0.000471837 0
-0.00043691 -0.000486724 0
-0.000516129 -0.000420948 0
-0.000495355 -0.000415432 0
-0.000511646 -0.00040128 0
-0.000394697 -0.000481197 0
-0.000406302 -0.000455143 0
-0.000537257 -0.000388197 0
-0.000531099 -0.000407297 0
-0.000523982 -0.000388328 0
-0.000370063 -0.000472956 0
-0.000368 -0.0005 0
-0.00035308 -0.000485302 0
-0.0005072 -0.00037867 0
-0.000485506 -0.000383975 0
-0.000490949 -0.000359622 0
-0.000337127 -0.000484331 0
-0.000316 -0.0005 0
-0.000326495 -0.00047415 0
-0.00055 -0.00035 0
-0.000531201 -0.000370361 0
-0.000528367 -0.000346817 0
-0.000363898 -0.000448809 0
-0.000383315 -0.000460336 0
-3.26269e-05 -0.000415503 0
-5.99662e-05 -0.000409556 0
-5.46944e-05 -0.000429488 0
-0.000529747 0.000479887 0
-0.00055 0.0005 0
-0.00055 0.000475 0
-0.00055 0.00045 0
-0.000534834 0.000429171 0
-0.000526943 0.000442611 0
-0.000534026 0.000460176 0
-0.000531099 0.000407297 0
-0.000511672 0.000401178 0
-0.000516129 0.000420948 0
-0.000524 0.0005 0
-0.000505983 0.000484325 0
-0.000531201 0.000370361 0
-0.0005072 0.00037867 0
-0.000523982 0.000388328 0
-0.00048341 0.000469132 0
-0.000483679 0.000487539 0
-0.000528367 0.000346817 0
-0.00055 0.000325 0
-0.000525657 0.000328474 0
-0.000498 0.0005 0
-0.000530382 0.0003125 0
-0.000419243 0.000477545 0
-0.000440015 0.00047335 0
-0.000425917 0.000463678 0
-0.000435138 0.000262661 0
-0.000414982 0.000274462 0
-0.000435654 0.000285217 0
-0.000459 0.000484239 0
-0.000436852 0.000487027 0
-0.000446 0.0005 0
-0.000533308 0.000292503 0
-0.00055 0.000275 0
-0.000523377 0.000276953 0
-0.000425282 0.000446352 0
-0.000409368 0.000435728 0
-0.000406302 0.000455143 0
0.002009 0.000495 0
0.001998 0.0005 0
0.00199875 0.00049375 0
0.0019885 0.0004925 0
0.001972 0.0005 0
0.00197825 0.00049125 0
0.001968 0.00049 0
0.00195775 0.00048875 0
0.001946 0.0005 0
0.0019475 0.0004875 0
0.00193725 0.00048625 0
0.00192 0.0005 0
0.001927 0.000485 0
0.00191675 0.00048375 0
0.0019065 0.0004825 0
0.001894 0.0005 0
0.00189625 0.00048125 0
0.001886 0.00048 0
0.001868 0.0005 0
0.00187575 0.00047875 0
0.0018655 0.0004775 0
0.00185515 0.00048575 0
0.001842 0.0005 0
0.001845 0.000475 0
0.00185525 0.00047625 0
0.00182564 0.0004829 0
0.001816 0.0005 0
0.0018245 0.0004725 0
0.00183475 0.00047375 0
0.00181425 0.00047125 0
0.00180295 0.000482657 0
0.00179 0.0005 0
0.00179375 0.00046875 0
0.001804 0.00047 0
0.00178168 0.000480619 0
0.001764 0.0005 0
0.00177325 0.00046625 0
0.0017835 0.0004675 0
0.00176428 0.000476631 0
0.001763 0.000465 0
0.001738 0.0005 0
0.001751 0.000484164 0
0.00175275 0.00046375 0
0.00174025 0.000475632 0
0.001712 0.0005 0
0.00172615 0.000478449 0
0.001722 0.00046 0
0.00173225 0.00046125 0
0.0017015 0.0004575 0
0.00171243 0.00047381 0
0.00169554 0.000479999 0
0.001686 0.0005 0
0.00167507 0.000479751 0
0.00168498 0.000464861 0
0.00166 0.0005 0
0.0016558 0.000471459 0
0.00167135 0.000462887 0
0.001681 0.000455 0
0.0016605 0.0004525 0
0.00167075 0.00045375 0
0.00164059 0.000461599 0
0.0016394 0.000479551 0
0.00162881 0.00046615 0
0.00162975 0.00044875 0
0.00165025 0.00045125 0
0.00164 0.00045 0
0.00161754 0.000458641 0
0.00161722 0.000478101 0
0.00159956 0.000458294 0
0.00160925 0.00044625 0
0.0016195 0.0004475 0
0.00157667 0.000460322 0
0.00158875 0.00044375 0
0.00159194 0.000480155 0
0.001599 0.000445 0
0.0015785 0.0004425 0
0.00155808 0.000456757 0
0.00155647 0.000476701 0
0.00154059 0.000466642 0
0.00153756 0.000450083 0
0.00154839 0.000450446 0
0.00156825 0.00044125 0
0.00151954 0.000480508 0
0.00154052 0.00048477 0
0.00153 0.0005 0
0.00154775 0.00043875 0
0.00152142 0.000456625 0
0.00152821 0.000445753 0
0.0015375 0.0004375 0
0.001504 0.0005 0
0.00149644 0.000485168 0
0.00151787 0.000443178 0
0.00152725 0.00043625 0
0.00150675 0.00043375 0
0.001517 0.000435 0
0.00148119 0.000450887 0
0.00148072 0.000475756 0
0.00146584 0.000463516 0
0.00150008 0.00046396 0
0.00149351 0.00044543 0
0.0015061 0.000446252 0
0.001476 0.00043 0
0.00148625 0.00043125 0
0.00146492 0.000482975 0
0.00144888 0.000473562 0
0.00146676 0.000444259 0
0.00145255 0.000453656 0
0.00145652 0.000438669 0
0.00141401 0.000479821 0
0.001426 0.0005 0
0.0014 0.0005 0
0.00144374 0.000438862 0
0.0014555 0.0004275 0
0.001435 0.000425 0
0.00144525 0.00042625 0
0.00142746 0.000438121 0
0.00141288 0.000443191 0
0.00141707 0.000432778 0
0.0013921 0.000438992 0
0.00140355 0.00045932 0
0.00138302 0.00045922 0
0.00142912 0.000458869 0
0.00140592 0.000430037 0
0.0014145 0.0004225 0
0.00136458 0.00045869 0
0.00137106 0.00044063 0
0.001394 0.00042 0
0.00138259 0.000428915 0
0.00137484 0.000477094 0
0.00139166 0.000478902 0
0.0013586 0.000478984 0
0.00133449 0.000478649 0
0.00134717 0.000461848 0
0.00137256 0.000425134 0
0.00135323 0.000424541 0
0.00136325 0.00041625 0
0.00136122 0.00042876 0
0.00131206 0.000447284 0
0.00133168 0.000456738 0
0.00131773 0.000465243 0
0.00134756 0.000440343 0
0.00132747 0.000436463 0
0.00133483 0.000426786 0
0.00131081 0.00041867 0
0.00132382 0.000422815 0
0.00131507 0.00043122 0
0.00131059 0.000480123 0
0.0013325 0.0004125 0
0.0012915 0.0004075 0
0.0012982 0.000418199 0
0.00128915 0.000426216 0
0.00126366 0.000447574 0
0.00127331 0.000430908 0
0.00128781 0.000444872 0
0.00125336 0.000428376 0
0.00130218 0.000431077 0
0.00127894 0.000416344 0
0.00124774 0.000469608 0
0.00127668 0.000464148 0
0.00126591 0.00048331 0
0.00126722 0.000418415 0
0.00125768 0.000411931 0
0.00124326 0.000413546 0
0.0012505 0.0004025 0
0.00122408 0.000450118 0
0.00120276 0.000447432 0
0.0012139 0.000432235 0
0.00124336 0.000444132 0
0.00123056 0.000427595 0
0.00122977 0.000409049 0
0.0012185 0.000469217 0
0.00122676 0.000485947 0
0.00120525 0.000486094 0
0.00121479 0.000413153 0
0.00119547 0.000424221 0
0.00120249 0.000407448 0
0.00119925 0.00039625 0
0.00119346 0.000406114 0
0.00117479 0.000447279 0
0.00114726 0.000445259 0
0.0011571 0.000427814 0
0.00119443 0.000466611 0
0.00117447 0.000421596 0
0.00118421 0.00040752 0
0.00117409 0.000404437 0
0.00116775 0.000470073 0
0.001179 0.0004855 0
0.00115473 0.000484802 0
0.0011685 0.0003925 0
0.00117875 0.00039375 0
0.00115454 0.000400551 0
0.001148 0.00039 0
0.00115825 0.00039125 0
0.00111703 0.000423398 0
0.00113786 0.000426731 0
0.00112589 0.000443871 0
0.00113234 0.000406671 0
0.00114754 0.000413371 0
0.001106 0.000442326 0
0.00109703 0.000424261 0
0.0011275 0.0003875 0
0.00113775 0.00038875 0
0.00110211 0.000480875 0
0.00108244 0.000471951 0
0.00109312 0.000458413 0
0.00111755 0.000399116 0
0.0010944 0.000392972 0
0.00110415 0.000405876 0
0.00108839 0.000407536 0
0.00106472 0.000476905 0
0.00107274 0.000457868 0
0.00108011 0.000392415 0
0.00106885 0.000404365 0
0.00106625 0.000388708 0
0.00105286 0.000419254 0
0.00105055 0.000395469 0
0.00104215 0.000439764 0
0.00106346 0.000440629 0
0.00100945 0.000451249 0
0.00102825 0.00045614 0
0.00101189 0.000468452 0
0.00107625 0.00038125 0
0.00105575 0.00037875 0
0.001066 0.00038 0
0.00103352 0.000476905 0
0.00101803 0.00048465 0
0.00103685 0.000389398 0
0.0010245 0.00038825 0
0.00103525 0.00037625 0
0.00101092 0.000399779 0
0.00101267 0.000382619 0
0.00101382 0.00042025 0
0.00103187 0.000405286 0
0.00103359 0.000424605 0
0.000987383 0.00045447 0
0.000999411 0.000435161 0
0.0009744 0.000433145 0
0.0010045 0.0003725 0
0.00101475 0.00037375 0
0.000970845 0.000465215 0
0.000952614 0.000467664 0
0.000961768 0.000449944 0
0.00099729 0.000387704 0
0.000978901 0.00039598 0
0.000985823 0.000381492 0
0.000962289 0.000393709 0
0.000974259 0.000381279 0
0.00097375 0.00036875 0
0.000963045 0.000376631 0
0.000958 0.0005 0
0.000932 0.0005 0
0.000947542 0.00048457 0
0.000949675 0.000385245 0
0.000936214 0.000389472 0
0.000940006 0.000374906 0
0.000966411 0.000412573 0
0.000944241 0.000407079 0
0.000903569 0.000424993 0
0.000921701 0.000402409 0
0.000927439 0.000427744 0
0.000889795 0.000409067 0
0.000903071 0.00040248 0
0.000925447 0.000377721 0
0.00093275 0.00036375 0
0.000907708 0.000387127 0
0.000911303 0.000370839 0
0.000911933 0.000455145 0
0.000930678 0.000473279 0
0.000911886 0.000482603 0
0.000887724 0.000388076 0
0.000899595 0.000375116 0
0.000902 0.00036 0
0.000889241 0.00036954 0
0.000836977 0.000459472 0
0.000836223 0.000483578 0
0.000820467 0.000474142 0
0.000871227 0.000403557 0
0.000861 0.000355 0
0.000868368 0.000365714 0
0.00085484 0.00036588 0
0.000847735 0.000402845 0
0.000823121 0.000421599 0
0.000826582 0.000398147 0
0.000846943 0.00042454 0
0.000838832 0.000378613 0
0.000835569 0.000363808 0
0.000844098 0.00036291 0
0.00085075 0.00035375 0
0.000851465 0.000477164 0
0.00083025 0.00035125 0
0.000822824 0.000368659 0
0.00081446 0.000357362 0
0.000805884 0.000371794 0
0.000753471 0.000477524 0
0.000738313 0.000473927 0
0.000739102 0.000461526 0
0.00079826 0.000358588 0
0.000788607 0.000376287 0
0.000781733 0.000357987 0
0.000816783 0.000384471 0
0.000807975 0.000404095 0
0.000752138 0.000404775 0
0.000767682 0.000417043 0
0.000749617 0.000421803 0
0.000752903 0.000384008 0
0.000738293 0.000393136 0
0.000772614 0.000394048 0
0.00076863 0.000371878 0
0.000765995 0.000354121 0
0.000779 0.000345 0
0.00071811 0.000453059 0
0.000738069 0.000437967 0
0.000752085 0.000365972 0
0.000728123 0.000374583 0
0.000741845 0.000354664 0
[...]
CELL_DATA 58684
VECTORS velocity DOUBLE
65.3755 0.299801 0
69.4922 -3.41668e-05 0
69.4214 0.000336737 0
69.4891 0.00365456 0
69.4143 -0.00525052 0
69.4906 -0.00154145 0
69.4157 0.00166203 0
67.8006 0.00210356 0
67.8079 0.00913767 0
67.8209 0.00423846 0
67.8476 0.00560877 0
67.9009 -0.0467508 0
67.8179 0.0489831 0
67.9116 -0.0220718 0
67.8259 0.0825536 0
68.0422 -0.0552644 0
67.8026 0.0320853 0
68.3366 -0.0733975 0
67.832 0.12419 0
68.7232 -0.029253 0
67.7928 0.0303245 0
68.3069 -0.178546 0
72.9765 -1.25928 0
67.7924 -0.00266579 0
67.8046 -0.0203806 0
67.7922 -0.00800529 0
67.8099 -0.0557422 0
67.8067 -0.0100678 0
67.8008 -0.0799527 0
67.8114 -0.0213723 0
67.7937 -0.0476571 0
67.815 -0.0146724 0
67.8177 -0.048079 0
67.9484 0.0276085 0
67.9688 0.373881 0
67.8731 0.00312547 0
67.7925 -0.0480021 0
68.0152 0.109227 0
69.4791 -0.00995856 0
69.4759 -0.0021799 0
69.4758 -0.00258624 0
69.4721 -0.0117821 0
69.457 -0.00429408 0
69.458 -0.00915298 0
69.4506 -0.0155218 0
69.4415 -0.0205571 0
69.4316 -0.00850757 0
69.4293 -0.022699 0
69.4199 -0.0263505 0
69.4043 -0.0118547 0
69.4074 -0.0330507 0
69.3933 -0.0394741 0
69.3827 -0.0370143 0
69.3714 -0.0171828 0
69.3657 -0.0484241 0
69.3506 -0.0441664 0
69.336 -0.0221492 0
69.3345 -0.0592246 0
69.3154 -0.0570065 0
69.2946 -0.0432186 0
69.2936 -0.018018 0
69.29 -0.0670684 0
69.2517 -0.0511375 0
69.2395 -0.018135 0
69.2402 -0.084243 0
69.2264 -0.0823267 0
69.2227 -0.0805618 0
69.2011 -0.0216216 0
69.1898 -0.0946299 0
69.1874 -0.0892337 0
69.1723 -0.0294657 0
69.1574 -0.103151 0
69.1503 -0.0892809 0
69.1412 -0.124804 0
69.1361 -0.0232034 0
69.1117 -0.0949834 0
69.1153 -0.0611583 0
69.1015 -0.0307918 0
69.0908 -0.122611 0
69.0725 -0.120191 0
69.0812 -0.100741 0
69.0608 -0.0219841 0
69.0323 -0.0534076 0
69.0471 -0.129278 0
69.011 -0.0712602 0
69.0301 -0.114421 0
69.0367 -0.155534 0
69.0209 -0.163389 0
68.9433 -0.131258 0
68.9389 -0.173355 0
68.9721 -0.149773 0
68.9586 -0.183683 0
68.8987 -0.137445 0
68.9119 -0.135981 0
68.8874 -0.202155 0
68.8046 -0.196316 0
68.8154 -0.125851 0
68.8226 -0.20104 0
68.7551 -0.209457 0
68.6817 -0.138293 0
68.5426 -0.173626 0
68.6929 -0.190539 0
68.4738 -0.0399252 0
68.5651 -0.215477 0
68.4598 -0.200538 0
68.4922 -0.213008 0
68.3058 -0.0315594 0
68.4465 -0.232969 0
68.3859 -0.243341 0
68.1175 -0.129612 0
68.1855 -0.129428 0
68.279 -0.175691 0
68.1648 -0.225249 0
68.0156 -0.083788 0
68.0088 -0.19693 0
67.9958 -0.123985 0
67.7434 -0.0242488 0
68.0025 -0.229206 0
67.9443 -0.242556 0
67.8227 -0.207087 0
67.7233 -0.134322 0
67.7646 -0.10226 0
67.8052 -0.220255 0
67.6847 -0.126126 0
67.7289 -0.205157 0
67.6666 -0.0815835 0
67.7183 -0.180912 0
67.6329 -0.0592233 0
67.7074 -0.181589 0
67.6894 -0.187792 0
67.7026 -0.0977127 0
67.6919 -0.143156 0
67.6539 -0.0676286 0
67.7394 -0.157009 0
67.6754 -0.0456397 0
67.7107 -0.167668 0
67.8273 -0.13701 0
67.8827 -0.0793068 0
67.9316 -0.110409 0
67.8131 -0.119478 0
67.8746 -0.115097 0
67.8675 -0.062321 0
67.9911 -0.114924 0
68.0432 -0.104563 0
68.2408 -0.0533535 0
68.0218 -0.0541044 0
68.057 -0.0887355 0
68.1254 -0.113194 0
68.1595 -0.00231875 0
68.3394 -0.0876107 0
68.3803 -0.0933133 0
68.6289 -0.03909 0
68.3528 -0.0843211 0
68.4496 -0.068528 0
68.5213 -0.0992248 0
68.4976 0.0016171 0
68.5649 -0.115174 0
68.731 -0.116837 0
68.8866 -0.105185 0
68.8 -0.0993101 0
69.0482 -0.124363 0
68.8786 -0.125034 0
69.1019 -0.0302293 0
68.917 -0.11006 0
69.1402 -0.131446 0
69.2651 -0.0507466 0
69.3378 -0.199125 0
69.4373 -0.192153 0
69.4649 -0.108769 0
69.7514 -0.125141 0
69.3287 -0.183183 0
69.4294 -0.231841 0
69.6944 -0.0514208 0
69.6412 -0.257111 0
69.7825 -0.310376 0
69.6167 -0.222984 0
69.9331 -0.140364 0
70.0321 -0.229081 0
69.8407 -0.361136 0
70.1793 -0.163104 0
70.0097 -0.37249 0
70.0861 -0.409334 0
70.1419 -0.480952 0
70.2883 0.00327227 0
70.3664 -0.540631 0
70.1327 -0.396268 0
70.4743 -0.420824 0
70.6183 -0.533866 0
70.4166 -0.622673 0
70.5334 -0.660551 0
70.5381 -0.140895 0
70.5948 -0.700878 0
70.6555 -0.808666 0
70.6839 -0.797556 0
71.0822 -0.216731 0
70.7438 -0.661112 0
70.9332 -0.971468 0
71.147 -0.802244 0
71.0126 -0.682276 0
71.0249 -1.08363 0
70.9986 -1.04707 0
71.0845 -0.187248 0
71.1439 -1.20733 0
71.1973 -1.14844 0
71.6189 -0.258868 0
71.3382 -1.3041 0
71.2181 -0.888102 0
71.5903 -0.860843 0
71.6427 -1.1239 0
71.473 -1.20084 0
71.4101 -1.41181 0
71.6366 -0.557514 0
71.6425 -1.39742 0
71.5854 -1.57628 0
71.8363 -1.6269 0
71.858 -0.0378505 0
71.8166 -1.3498 0
71.8358 -1.6843 0
71.7726 -0.437709 0
71.9027 -1.75096 0
72.0999 -1.05242 0
71.9785 -1.81881 0
72.2383 -0.597574 0
72.1384 -1.60207 0
72.0972 -1.83417 0
72.1323 -0.306137 0
72.2982 -1.89146 0
72.4531 -1.8364 0
72.317 -1.58505 0
72.3933 -0.99945 0
72.4916 -2.05206 0
72.5196 -0.867414 0
72.7791 -0.147851 0
72.3838 -1.67044 0
72.6011 -2.01841 0
72.7373 -2.14362 0
72.786 -0.754961 0
72.8341 -1.8838 0
73.0185 -2.03719 0
72.9484 -0.250149 0
73.1669 -2.00923 0
73.057 -2.17629 0
72.9605 -1.68503 0
73.1046 -0.889063 0
73.2156 -1.05655 0
73.2057 -2.21989 0
73.4712 -0.0193864 0
73.3245 -2.34197 0
73.4779 -2.26439 0
73.4187 -2.35858 0
73.7701 -0.716522 0
73.6578 -2.05592 0
73.8973 -2.15119 0
73.9246 -0.0168633 0
73.9934 -2.46132 0
74.3637 -2.2943 0
73.9859 -1.66537 0
73.9746 -0.859236 0
74.2388 -2.47043 0
74.1801 -1.04246 0
74.4365 -0.132524 0
74.3195 -1.92599 0
74.6009 -2.42759 0
74.8882 -2.36438 0
74.5935 -0.497256 0
75.1535 -1.94876 0
75.0321 -2.28931 0
74.756 -0.217855 0
75.2657 -2.3966 0
75.6298 -2.28273 0
75.5515 -1.34872 0
74.9916 0.00434963 0
75.9929 -2.05977 0
75.6137 -0.598122 0
75.9742 -0.571986 0
76.0044 -1.79786 0
75.8459 -1.3133 0
76.7098 -1.57959 0
75.3536 -0.0798824 0
76.5956 -1.79594 0
76.5629 -0.878109 0
77.1466 -1.03906 0
75.1306 -0.0214597 0
77.4356 -0.162204 0
77.3018 0.134272 0
75.0253 0.0961587 0
77.624 -0.682784 0
77.8317 0.000455307 0
75.9345 0.66876 0
75.4187 0.247827 0
76.6976 0.102334 0
77.8611 0.598368 0
75.1784 0.181194 0
77.5843 1.44794 0
77.8644 0.697371 0
77.8781 0.945429 0
74.9655 0.85845 0
76.7129 1.66206 0
77.6382 1.79425 0
74.9085 0.153045 0
77.4634 2.24516 0
77.3854 2.19645 0
76.6222 3.41621 0
73.731 0.215042 0
77.3593 3.18367 0
75.9778 2.21634 0
74.7114 0.946269 0
74.5606 1.8476 0
77.1914 3.51582 0
76.4779 3.89611 0
74.0899 0.358408 0
76.3049 4.47367 0
69.4034 0.00893027 0
69.3984 0.00230971 0
69.3944 0.000962203 0
69.3898 0.0114799 0
69.3739 0.00416911 0
69.3721 0.0080812 0
69.3642 0.0147521 0
69.3549 0.0198621 0
69.344 0.00851265 0
69.339 0.0199626 0
69.3298 0.0230672 0
69.3123 0.0118193 0
69.3119 0.0305916 0
69.297 0.0364191 0
69.2859 0.0340888 0
69.2723 0.0169762 0
69.2633 0.0443913 0
69.2487 0.0405591 0
69.2325 0.021883 0
69.2262 0.0538658 0
69.2075 0.0525119 0
69.1838 0.0697868 0
69.1863 0.0406915 0
69.1645 0.044278 0
69.1396 0.0799682 0
69.137 0.0478134 0
69.1075 0.0774554 0
69.1013 0.0765991 0
69.0817 0.0940021 0
69.0964 0.0370755 0
69.0609 0.0838976 0
69.0401 0.105658 0
69.0509 0.0435353 0
69.0056 0.118368 0
69.0051 0.104798 0
68.9942 0.09055 0
69.021 0.0580304 0
68.9747 0.0896757 0
68.9635 0.103877 0
68.9774 0.0572954 0
68.9333 0.136552 0
68.9175 0.0494768 0
68.925 0.114485 0
68.9337 0.0661814 0
68.8988 0.121488 0
68.8821 0.145992 0
68.8552 0.0655973 0
68.8751 0.113053 0
68.8532 0.149864 0
68.833 0.154718 0
68.7921 0.112461 0
68.7838 0.123271 0
68.775 0.163471 0
68.7437 0.203018 0
68.6958 0.108308 0
68.7179 0.201452 0
68.6801 0.20371 0
68.5427 0.0927588 0
68.6532 0.120228 0
68.5922 0.205778 0
68.5685 0.199686 0
68.4605 0.144513 0
68.4135 0.107121 0
68.3811 0.176291 0
68.5944 0.0423789 0
68.3271 0.216681 0
68.2189 0.254375 0
68.2568 0.205413 0
68.2866 0.127764 0
68.1431 0.245145 0
68.1075 0.232865 0
67.8642 0.0965151 0
68.1166 0.185188 0
67.9566 0.226243 0
67.8932 0.244357 0
68.0107 0.0515964 0
67.8761 0.175072 0
67.7906 0.268201 0
67.8362 0.136897 0
67.7504 0.249943 0
67.6583 0.253938 0
67.6679 0.186012 0
67.5731 0.0793997 0
67.6224 0.221423 0
67.62 0.240757 0
67.55 0.0523848 0
67.5853 0.247457 0
67.5802 0.189458 0
67.576 0.193499 0
67.5709 0.151969 0
67.5834 0.241209 0
67.6475 0.251969 0
67.6089 0.0582675 0
67.5976 0.179611 0
67.7015 0.255379 0
67.6751 0.185979 0
67.5805 0.0840577 0
67.741 0.225695 0
67.8014 0.21986 0
67.7982 0.0415891 0
67.8982 0.0719824 0
67.9136 0.164055 0
67.946 0.235022 0
67.8268 0.140931 0
68.0479 0.188552 0
68.1312 0.209811 0
68.3188 0.0448208 0
68.1444 0.110483 0
68.3227 0.223988 0
68.3456 0.194333 0
68.1167 0.0889377 0
68.4248 0.20504 0
68.5973 0.186583 0
68.6649 0.0501091 0
68.5015 0.18091 0
68.8129 0.234204 0
68.8072 0.17834 0
68.4918 0.072759 0
68.8995 0.18925 0
69.1452 0.246603 0
68.9251 0.0638941 0
69.1466 0.184715 0
69.2009 0.0629416 0
69.3013 0.214827 0
69.1159 0.12591 0
69.3481 0.252951 0
69.5322 0.234291 0
69.4391 0.0668319 0
69.5175 0.252693 0
69.7448 0.285523 0
69.8113 0.0566688 0
69.4615 0.219039 0
69.7595 0.254089 0
69.8802 0.277673 0
69.7508 0.0594814 0
69.9242 0.26075 0
70.167 0.356003 0
70.1462 0.304703 0
70.1511 0.0919364 0
70.3102 0.348072 0
69.9944 0.11755 0
69.9503 0.27091 0
70.2815 0.363013 0
70.4933 0.429268 0
70.5148 0.448058 0
70.0766 -0.00967794 0
70.6686 0.534519 0
70.683 0.526725 0
70.74 0.518701 0
70.7446 0.263479 0
70.8954 0.296888 0
70.7503 0.552834 0
70.5035 0.147363 0
70.8859 0.646036 0
70.8719 0.644704 0
70.9343 0.624364 0
70.9208 0.19594 0
70.9579 0.718884 0
71.1015 0.884427 0
71.0719 0.377467 0
71.0287 0.377314 0
71.0988 0.770183 0
71.1991 0.995048 0
70.9229 0.218745 0
71.2494 1.05005 0
71.2595 1.0672 0
71.2677 0.232779 0
71.4055 1.26226 0
71.4207 1.24191 0
71.5074 1.1571 0
71.4232 0.527901 0
71.3878 0.576104 0
71.3887 1.2355 0
71.33 0.361597 0
71.5367 1.46849 0
71.5608 1.44628 0
71.6095 1.41332 0
71.4899 0.232632 0
71.7016 1.64852 0
71.7009 1.71167 0
71.6836 1.00978 0
71.9489 1.42368 0
71.7661 0.858776 0
71.765 1.6831 0
71.6981 0.526018 0
71.9457 1.98999 0
71.9451 1.96754 0
71.7088 0.421246 0
72.059 1.87296 0
72.2588 2.16175 0
72.1618 2.10534 0
72.2883 0.527913 0
72.6106 2.31172 0
72.6654 2.46079 0
72.0585 1.50242 0
72.5597 1.90722 0
72.2439 0.953199 0
72.95 2.64231 0
72.5194 0.312559 0
73.0054 2.60508 0
73.0162 2.52851 0
72.2719 0.247874 0
72.8825 2.30735 0
73.4876 2.74116 0
73.6534 2.76081 0
73.1066 0.758109 0
73.7587 2.73872 0
73.8656 2.92971 0
72.8699 1.77499 0
74.0452 2.039 0
73.4028 0.762986 0
74.153 2.93047 0
73.5431 0.291026 0
74.4129 2.81755 0
74.5897 2.78278 0
73.2263 0.198471 0
74.3998 2.41349 0
75.0888 2.69229 0
75.4345 2.58114 0
73.9739 0.602725 0
75.1818 2.48122 0
75.6877 2.55516 0
74.6435 2.09975 0
75.7236 1.65836 0
74.2643 0.483202 0
75.3849 2.35052 0
74.5246 0.198075 0
76.1732 2.40576 0
76.3289 2.117 0
74.2355 0.166541 0
76.0975 1.57069 0
76.6293 1.69097 0
76.9803 1.49072 0
75.1559 0.149809 0
77.1561 1.21976 0
77.2662 1.02531 0
75.5428 0.154992 0
77.3095 1.03487 0
76.7105 0.267368 0
75.3886 0.540218 0
75.0415 0.446298 0
77.4927 0.688473 0
77.4231 0.124363 0
77.8042 -0.0114748 0
75.0657 -0.000834299 0
77.3532 -0.394018 0
77.8421 -0.759507 0
75.3435 0.00178983 0
77.146 -0.402679 0
77.8633 -1.29118 0
76.867 -0.922127 0
75.6581 -0.234718 0
77.7648 -1.58875 0
77.6735 -1.89792 0
76.5455 -0.334448 0
76.5276 -2.05597 0
75.2826 -1.67973 0
77.5629 -1.93244 0
75.1902 -0.23876 0
77.4261 -2.68964 0
75.7548 4.84298 0
76.2063 4.35876 0
72.9169 1.08416 0
75.7135 4.75692 0
74.2846 4.32108 0
75.1129 5.21748 0
73.3697 0.429838 0
74.5168 5.30291 0
73.8162 5.1828 0
72.4749 0.539124 0
73.7425 5.55604 0
77.3715 -2.97472 0
75.2782 -0.131075 0
77.1925 -3.22975 0
76.4597 -3.49777 0
76.0043 -2.99063 0
74.9946 -0.180014 0
76.5215 -3.95147 0
73.0912 5.00678 0
75.9298 -4.74605 0
74.9625 -0.8948 0
75.7529 -4.56495 0
75.0372 -5.20339 0
71.6268 1.31038 0
74.8075 -5.03563 0
75.8472 -2.7965 0
75.3005 -4.56739 0
74.1373 -3.2169 0
73.7126 -0.508812 0
74.7019 -4.57601 0
74.1754 -4.77362 0
72.6138 5.2827 0
74.1892 -4.87477 0
74.2625 -0.274707 0
73.5391 -5.00314 0
73.0372 -5.48301 0
73.298 -0.317402 0
72.3232 -5.52832 0
72.851 -3.94855 0
71.767 -0.34199 0
71.6593 -5.59591 0
71.9614 -2.89606 0
73.115 -2.32026 0
72.2136 -4.75692 0
71.4013 -4.97953 0
73.3946 2.6557 0
70.9943 0.261928 0
73.0626 1.72333 0
72.2143 -0.0171739 0
71.0015 -5.37926 0
72.4444 4.95485 0
70.8284 0.188631 0
72.0387 4.12496 0
70.4302 -5.32292 0
71.8475 -0.959683 0
70.0389 -3.65078 0
71.8509 5.70365 0
69.978 1.00414 0
71.8318 5.60752 0
70.5088 4.64371 0
70.1684 0.200207 0
70.9537 4.89705 0
70.3996 -3.87809 0
71.525 -0.286347 0
69.8669 -5.44392 0
69.9395 -5.23629 0
71.1448 5.29922 0
69.9029 5.08239 0
69.659 -0.00126627 0
70.5774 5.25599 0
69.3582 2.96869 0
69.7095 1.13552 0
69.2197 -5.38325 0
69.964 -0.530401 0
69.4834 -5.27222 0
68.9474 5.36107 0
68.8348 -4.9071 0
69.3392 -0.454288 0
69.1817 -1.69918 0
68.1071 -4.66989 0
70.151 -2.25061 0
67.9666 -4.46749 0
68.9768 -0.103271 0
67.3436 -4.29162 0
68.8681 1.41992 0
69.1869 0.184146 0
68.7342 4.43547 0
68.7294 0.0315085 0
68.4695 5.28815 0
68.4076 4.94782 0
68.4866 0.0803808 0
67.9261 4.26095 0
68.2899 0.0604304 0
68.3016 -3.92352 0
68.994 -0.210487 0
69.2134 3.69304 0
67.9193 -0.0360913 0
67.7313 4.00532 0
67.294 -4.29872 0
69.0719 -0.103539 0
66.1509 -3.60507 0
67.8575 0.0869777 0
66.6844 -3.54511 0
68.4316 1.30256 0
67.7934 -0.0287492 0
68.8405 -3.00133 0
67.7937 0.032374 0
66.2755 -3.35583 0
67.299 3.59024 0
67.367 -2.44737 0
67.8065 0.0737234 0
66.5396 -2.7979 0
68.0419 1.71241 0
66.5658 1.22154 0
66.9769 3.05908 0
67.8626 -0.32604 0
66.4313 -3.15288 0
67.8366 -0.0602159 0
66.8061 4.27485 0
67.8644 -1.28955 0
67.7924 0.0221565 0
66.2221 -2.85251 0
66.7496 3.8419 0
67.8828 0.00665111 0
66.6946 2.94693 0
66.523 2.91556 0
67.8365 -0.0340715 0
65.9978 2.62998 0
65.623 -2.52976 0
67.829 0.0394775 0
65.3653 -2.56022 0
67.1521 -1.09195 0
67.8104 0.0268832 0
65.0718 -1.72577 0
65.9311 3.33933 0
67.9012 0.0483897 0
66.9284 1.99918 0
65.4611 -1.49549 0
67.8471 -0.000444724 0
64.961 -1.41287 0
65.1144 2.4555 0
67.8534 0.00646059 0
65.399 2.32034 0
65.6612 1.85436 0
67.7971 -0.00338476 0
65.0612 2.03894 0
65.9222 -0.832722 0
67.8817 -0.0406274 0
65.3593 -0.761583 0
64.4833 -0.453643 0
67.5721 -0.502271 0
64.6536 -0.369896 0
67.3339 0.63564 0
67.8314 -0.00405637 0
66.6656 1.4931 0
64.9897 1.6297 0
67.8462 0.011131 0
64.5696 1.10261 0
67.7722 -0.0692579 0
67.8045 0.0196984 0
64.5408 -0.0464777 0
64.9075 0.0589749 0
67.8311 -0.00251017 0
66.6079 0.233984 0
65.1749 0.426302 0
67.8194 0.00276729 0
67.4088 -3.42295 0
67.8519 0.127181 0
67.8025 -0.0348593 0
68.0263 4.41601 0
68.4505 -4.88983 0
70.6805 -0.495876 0
69.5474 0.438947 0
70.3236 5.55784 0
67.8298 -0.0156663 0
65.5826 3.20344 0
65.1839 -1.70838 0
67.8141 0.0426759 0
67.8628 0.120897 0
67.7097 -1.97273 0
67.8959 0.000522419 0
67.7972 -0.0381436 0
67.835 -0.000341631 0
64.946 1.43773 0
68.7093 0.199548 0
68.2033 0.822955 0
68.3706 -0.650115 0
69.3744 -0.299921 0
73.2885 -0.716288 0
72.6858 -5.40922 0
74.0208 5.23584 0
73.1247 0.244604 0
67.9202 0.935794 0
68.9458 5.12457 0
68.2231 -4.39581 0
68.7562 -1.05052 0
67.4033 -0.844677 0
65.7611 -0.0387842 0
66.8278 3.77837 0
68.061 1.07027 0
67.9756 -0.951647 0
65.6836 -2.89233 0
77.0151 -3.63123 0
74.8551 -0.425534 0
74.6689 0.463562 0
77.4118 2.8413 0
67.8948 -0.010653 0
67.7958 0.012686 0
67.8163 -0.0615365 0
68.45 0.364392 0
71.4945 0.352675 0
71.1775 2.37695 0
70.0753 -0.977506 0
72.2886 -0.967039 0
70.4131 2.8983 0
72.2157 5.33876 0
71.3877 -5.52977 0
71.032 -1.00761 0
73.8481 0.961022 0
74.4925 3.22435 0
73.5661 -1.6974 0
74.2755 -0.0210279 0
75.4454 -0.00935825 0
77.8485 -0.259753 0
77.2459 -1.10059 0
75.1659 0.0232515 0
74.5392 0.00958253 0
76.3819 2.12168 0
75.6389 -2.11393 0
74.8149 -0.22529 0
68.5701 -0.674198 0
68.0638 -0.229095 0
68.1337 0.59475 0
68.6381 0.442149 0
68.0455 0.529369 0
67.8057 -0.077645 0
67.7945 0.0335631 0
68.0313 -0.360247 0
75.3013 0.543126 0
76.2128 0.970416 0
75.5225 -0.666996 0
75.2951 -0.078072 0
66.6869 -0.567304 0
67.8328 -0.00300572 0
67.7816 -0.121245 0
67.8402 0.0312655 0
67.8113 -0.0308797 0
67.9052 0.158781 0
74.7023 2.71121 0
73.7708 0.469426 0
74.1267 -0.0168461 0
73.9496 -2.34392 0
70.4142 0.000668266 0
69.8899 -1.41132 0
70.6559 0.956307 0
69.6886 0.201451 0
67.9029 2.33766 0
67.3401 4.73321 0
67.3116 -3.86014 0
68.2136 -1.6817 0
68.4504 -1.01532 0
67.7462 -1.24376 0
67.938 2.72791 0
68.1581 1.21494 0
74.9504 -0.315703 0
75.0693 -0.099161 0
75.0825 0.0844217 0
75.9493 1.16493 0
69.0752 -3.12828 0
69.8003 -3.04403 0
69.6163 2.67273 0
69.8053 5.53647 0
68.6959 -2.10226 0
69.4363 -1.06096 0
69.3186 1.60216 0
68.7293 0.711726 0
73.4173 2.84887 0
72.8332 0.390777 0
73.2468 -0.0309393 0
72.8959 -2.1422 0
67.7105 0.582968 0
67.8124 -0.00820931 0
74.1824 -0.309951 0
74.8359 -1.37597 0
74.8684 0.993107 0
73.9817 0.162294 0
68.3778 -0.460048 0
68.1409 -0.624459 0
68.6716 0.826785 0
67.9596 0.156031 0
67.795 0.0451379 0
67.9534 -0.0160428 0
67.8259 -0.131634 0
67.804 -0.0395445 0
65.2769 1.17727 0
67.4237 0.959037 0
74.051 -1.91513 0
76.0848 -4.33381 0
76.7346 3.85625 0
73.9343 1.34527 0
67.2725 -1.27401 0
65.7282 -1.69917 0
72.0102 0.377372 0
72.0287 2.0049 0
71.3274 0.154317 0
71.6677 1.69492 0
72.3914 -1.86852 0
72.2669 -0.322 0
71.6634 -1.55044 0
71.7137 -0.0407927 0
73.43 -0.576601 0
73.423 -1.44745 0
73.367 1.09191 0
73.1179 0.0244492 0
67.8205 -0.0130409 0
67.8594 0.0882517 0
67.0744 0.334247 0
65.4428 0.618975 0
67.8533 -0.0107732 0
67.8129 0.011592 0
67.7389 0.160656 0
67.7201 -0.379986 0
77.7122 -1.62414 0
75.5787 -1.09363 0
76.3302 1.23719 0
77.7764 0.0966552 0
67.828 0.0181155 0
67.8601 0.0459211 0
67.8014 -0.0200896 0
67.9365 0.0531695 0
72.6625 -0.47669 0
72.6425 -1.17814 0
72.6053 0.913646 0
72.146 0.284945 0
71.1415 0.296208 0
71.1757 0.910948 0
71.2147 -1.28091 0
71.3053 -0.322914 0
68.1461 -0.362393 0
68.8495 -0.978099 0
68.459 0.787434 0
68.1682 0.628416 0
68.7635 1.44968 0
67.7968 1.08666 0
68.0843 -1.02718 0
68.4899 -1.36043 0
75.8908 0.106783 0
76.4753 1.65205 0
76.1085 -1.84876 0
76.0926 -0.352 0
67.9049 -0.475688 0
67.9505 -0.613663 0
67.9544 0.348276 0
67.6916 0.767243 0
71.036 0.800775 0
70.7984 0.235046 0
70.8208 -0.201419 0
70.8437 -0.89426 0
72.8377 2.53874 0
74.0936 4.58502 0
73.4153 -5.45162 0
73.4798 -1.98132 0
66.1042 -2.0232 0
67.6832 -1.89221 0
72.5851 -1.76304 0
73.0758 -0.632754 0
72.0261 0.27583 0
74.0713 1.90938 0
65.8048 3.03197 0
67.1985 1.63944 0
71.9332 -0.130765 0
72.1241 -1.24434 0
71.8502 0.832787 0
71.7931 0.210302 0
75.0136 -0.223612 0
75.0105 -0.96868 0
75.3598 1.23546 0
74.7198 0.172993 0
71.5402 0.779621 0
70.2435 0.178344 0
71.0222 -0.192024 0
71.4158 -1.73655 0
74.6738 1.2119 0
74.787 2.45539 0
74.6323 -2.31841 0
75.1248 -0.958973 0
70.7097 -2.12474 0
71.5384 -0.967709 0
71.0406 1.49943 0
72.6989 3.71634 0
70.4783 0.400606 0
70.3758 0.0721172 0
70.5643 -0.18126 0
70.1719 -0.476705 0
71.4426 -0.418782 0
71.597 -0.027755 0
71.468 0.219462 0
71.2226 0.785547 0
69.1397 0.21225 0
68.9988 0.562766 0
69.1842 -0.453284 0
69.7526 -0.169681 0
70.3033 1.50318 0
69.1707 0.879012 0
68.7568 -1.35556 0
68.2481 -1.46826 0
75.514 -0.134459 0
75.3902 -0.0789188 0
75.3155 0.098334 0
75.7126 -0.0565177 0
69.1864 2.08222 0
69.5166 1.27503 0
68.6978 -0.35048 0
68.5652 -0.142194 0
68.4336 0.127416 0
68.996 0.358023 0
67.1425 -0.495322 0
67.8062 -0.677787 0
77.395 -2.44502 0
75.7199 -1.30226 0
75.4886 2.39999 0
77.6434 2.18212 0
67.8985 -0.0448153 0
67.7985 0.030886 0
67.8134 -0.0431856 0
67.9375 0.0341696 0
67.8769 -0.00140843 0
67.9524 0.166495 0
68.0129 -0.0990794 0
68.1047 -0.00530217 0
66.3518 -0.100531 0
64.529 0.202185 0
72.8716 1.91621 0
75.4484 1.8821 0
74.5968 -1.5981 0
74.8875 -3.26575 0
67.7988 1.22982 0
67.5764 0.699871 0
67.7938 0.00209667 0
67.8459 0.0010157 0
69.6229 4.29749 0
68.2091 2.30908 0
69.3128 -2.34257 0
68.4762 -5.10171 0
67.7136 0.401769 0
67.8479 0.0072896 0
73.3643 1.43334 0
73.689 2.86879 0
73.251 -2.16718 0
73.4165 -0.511758 0
70.8439 -0.250437 0
71.1601 -0.175842 0
71.1679 0.121668 0
70.9213 0.582697 0
77.158 -1.03566 0
76.6925 0.398716 0
76.3955 0.274629 0
77.6075 0.382917 0
67.797 0.0534515 0
67.3284 -0.986576 0
68.0594 0.679846 0
68.1905 1.03957 0
68.3233 -1.08848 0
67.9938 -0.266177 0