# vtk DataFile Version 3.0
Unstructured Grid for Triangles
ASCII
DATASET UNSTRUCTURED_GRID
POINTS 29612 DOUBLE
-0.000272397 1.23686e-05 0
-0.000295789 9.5838e-06 0
-0.000277865 -3.1235e-06 0
0.002024 0.0005 0
0.00203975 0.00049875 0
0.00205 0.0005 0
0.00203975 -0.00049875 0
0.002024 -0.0005 0
0.00205 -0.0005 0
0.0020295 0.0004975 0
0.0020295 -0.0004975 0
0.00201925 0.00049625 0
0.00201925 -0.00049625 0
-0.000529747 -0.000479887 0
-0.00055 -0.0005 0
-0.000524 -0.0005 0
-0.000505983 -0.000484325 0
-0.000498 -0.0005 0
-0.000472 -0.0005 0
-0.000483864 -0.000487761 0
-0.000446 -0.0005 0
-0.000459 -0.000484239 0
-0.000429453 -0.000424878 0
-0.000447486 -0.000420717 0
-0.000441829 -0.000436609 0
-0.000512578 -0.000462101 0
-0.000493078 -0.000453594 0
-0.00050706 -0.000439006 0
-0.000419243 -0.000477545 0
-0.000440307 -0.000471837 0
-0.00043691 -0.000486724 0
-0.000516129 -0.000420948 0
-0.000495355 -0.000415432 0
-0.000511646 -0.00040128 0
-0.000394697 -0.000481197 0
-0.000406302 -0.000455143 0
-0.000537257 -0.000388197 0
-0.000531099 -0.000407297 0
-0.000523982 -0.000388328 0
-0.000370063 -0.000472956 0
-0.000368 -0.0005 0
-0.00035308 -0.000485302 0
-0.0005072 -0.00037867 0
-0.000485506 -0.000383975 0
-0.000490949 -0.000359622 0
-0.000337127 -0.000484331 0
-0.000316 -0.0005 0
-0.000326495 -0.00047415 0
-0.00055 -0.00035 0
-0.000531201 -0.000370361 0
-0.000528367 -0.000346817 0
-0.000363898 -0.000448809 0
-0.000383315 -0.000460336 0
-3.26269e-05 -0.000415503 0
-5.99662e-05 -0.000409556 0
-5.46944e-05 -0.000429488 0
-0.000529747 0.000479887 0
-0.00055 0.0005 0
-0.00055 0.000475 0
-0.00055 0.00045 0
-0.000534834 0.000429171 0
-0.000526943 0.000442611 0
-0.000534026 0.000460176 0
-0.000531099 0.000407297 0
-0.000511672 0.000401178 0
-0.000516129 0.000420948 0
-0.000524 0.0005 0
-0.000505983 0.000484325 0
-0.000531201 0.000370361 0
-0.0005072 0.00037867 0
-0.000523982 0.000388328 0
-0.00048341 0.000469132 0
-0.000483679 0.000487539 0
-0.000528367 0.000346817 0
-0.00055 0.000325 0
-0.000525657 0.000328474 0
-0.000498 0.0005 0
-0.000530382 0.0003125 0
-0.000419243 0.000477545 0
-0.000440015 0.00047335 0
-0.000425917 0.000463678 0
-0.000435138 0.000262661 0
-0.000414982 0.000274462 0
-0.000435654 0.000285217 0
-0.000459 0.000484239 0
-0.000436852 0.000487027 0
-0.000446 0.0005 0
-0.000533308 0.000292503 0
-0.00055 0.000275 0
-0.000523377 0.000276953 0
-0.000425282 0.000446352 0
-0.000409368 0.000435728 0
-0.000406302 0.000455143 0
0.002009 0.000495 0
0.001998 0.0005 0
0.00199875 0.00049375 0
0.0019885 0.0004925 0
0.001972 0.0005 0
0.00197825 0.00049125 0
0.001968 0.00049 0
0.00195775 0.00048875 0
0.001946 0.0005 0
0.0019475 0.0004875 0
0.00193725 0.00048625 0
0.00192 0.0005 0
0.001927 0.000485 0
0.00191675 0.00048375 0
0.0019065 0.0004825 0
0.001894 0.0005 0
0.00189625 0.00048125 0
0.001886 0.00048 0
0.001868 0.0005 0
0.00187575 0.00047875 0
0.0018655 0.0004775 0
0.00185515 0.00048575 0
0.001842 0.0005 0
0.001845 0.000475 0
0.00185525 0.00047625 0
0.00182564 0.0004829 0
0.001816 0.0005 0
0.0018245 0.0004725 0
0.00183475 0.00047375 0
0.00181425 0.00047125 0
0.00180295 0.000482657 0
0.00179 0.0005 0
0.00179375 0.00046875 0
0.001804 0.00047 0
0.00178168 0.000480619 0
0.001764 0.0005 0
0.00177325 0.00046625 0
0.0017835 0.0004675 0
0.00176428 0.000476631 0
0.001763 0.000465 0
0.001738 0.0005 0
0.001751 0.000484164 0
0.00175275 0.00046375 0
0.00174025 0.000475632 0
0.001712 0.0005 0
0.00172615 0.000478449 0
0.001722 0.00046 0
0.00173225 0.00046125 0
0.0017015 0.0004575 0
0.00171243 0.00047381 0
0.00169554 0.000479999 0
0.001686 0.0005 0
0.00167507 0.000479751 0
0.00168498 0.000464861 0
0.00166 0.0005 0
0.0016558 0.000471459 0
0.00167135 0.000462887 0
0.001681 0.000455 0
0.0016605 0.0004525 0
0.00167075 0.00045375 0
0.00164059 0.000461599 0
0.0016394 0.000479551 0
0.00162881 0.00046615 0
0.00162975 0.00044875 0
0.00165025 0.00045125 0
0.00164 0.00045 0
0.00161754 0.000458641 0
0.00161722 0.000478101 0
0.00159956 0.000458294 0
0.00160925 0.00044625 0
0.0016195 0.0004475 0
0.00157667 0.000460322 0
0.00158875 0.00044375 0
0.00159194 0.000480155 0
0.001599 0.000445 0
0.0015785 0.0004425 0
0.00155808 0.000456757 0
0.00155647 0.000476701 0
0.00154059 0.000466642 0
0.00153756 0.000450083 0
0.00154839 0.000450446 0
0.00156825 0.00044125 0
0.00151954 0.000480508 0
0.00154052 0.00048477 0
0.00153 0.0005 0
0.00154775 0.00043875 0
0.00152142 0.000456625 0
0.00152821 0.000445753 0
0.0015375 0.0004375 0
0.001504 0.0005 0
0.00149644 0.000485168 0
0.00151787 0.000443178 0
0.00152725 0.00043625 0
0.00150675 0.00043375 0
0.001517 0.000435 0
0.00148119 0.000450887 0
0.00148072 0.000475756 0
0.00146584 0.000463516 0
0.00150008 0.00046396 0
0.00149351 0.00044543 0
0.0015061 0.000446252 0
0.001476 0.00043 0
0.00148625 0.00043125 0
0.00146492 0.000482975 0
0.00144888 0.000473562 0
0.00146676 0.000444259 0
0.00145255 0.000453656 0
0.00145652 0.000438669 0
0.00141401 0.000479821 0
0.001426 0.0005 0
0.0014 0.0005 0
0.00144374 0.000438862 0
0.0014555 0.0004275 0
0.001435 0.000425 0
0.00144525 0.00042625 0
0.00142746 0.000438121 0
0.00141288 0.000443191 0
0.00141707 0.000432778 0
0.0013921 0.000438992 0
0.00140355 0.00045932 0
0.00138302 0.00045922 0
0.00142912 0.000458869 0
0.00140592 0.000430037 0
0.0014145 0.0004225 0
0.00136458 0.00045869 0
0.00137106 0.00044063 0
0.001394 0.00042 0
0.00138259 0.000428915 0
0.00137484 0.000477094 0
0.00139166 0.000478902 0
0.0013586 0.000478984 0
0.00133449 0.000478649 0
0.00134717 0.000461848 0
0.00137256 0.000425134 0
0.00135323 0.000424541 0
0.00136325 0.00041625 0
0.00136122 0.00042876 0
0.00131206 0.000447284 0
0.00133168 0.000456738 0
0.00131773 0.000465243 0
0.00134756 0.000440343 0
0.00132747 0.000436463 0
0.00133483 0.000426786 0
0.00131081 0.00041867 0
0.00132382 0.000422815 0
0.00131507 0.00043122 0
0.00131059 0.000480123 0
0.0013325 0.0004125 0
0.0012915 0.0004075 0
0.0012982 0.000418199 0
0.00128915 0.000426216 0
0.00126366 0.000447574 0
0.00127331 0.000430908 0
0.00128781 0.000444872 0
0.00125336 0.000428376 0
0.00130218 0.000431077 0
0.00127894 0.000416344 0
0.00124774 0.000469608 0
0.00127668 0.000464148 0
0.00126591 0.00048331 0
0.00126722 0.000418415 0
0.00125768 0.000411931 0
0.00124326 0.000413546 0
0.0012505 0.0004025 0
0.00122408 0.000450118 0
0.00120276 0.000447432 0
0.0012139 0.000432235 0
0.00124336 0.000444132 0
0.00123056 0.000427595 0
0.00122977 0.000409049 0
0.0012185 0.000469217 0
0.00122676 0.000485947 0
0.00120525 0.000486094 0
0.00121479 0.000413153 0
0.00119547 0.000424221 0
0.00120249 0.000407448 0
0.00119925 0.00039625 0
0.00119346 0.000406114 0
0.00117479 0.000447279 0
0.00114726 0.000445259 0
0.0011571 0.000427814 0
0.00119443 0.000466611 0
0.00117447 0.000421596 0
0.00118421 0.00040752 0
0.00117409 0.000404437 0
0.00116775 0.000470073 0
0.001179 0.0004855 0
0.00115473 0.000484802 0
0.0011685 0.0003925 0
0.00117875 0.00039375 0
0.00115454 0.000400551 0
0.001148 0.00039 0
0.00115825 0.00039125 0
0.00111703 0.000423398 0
0.00113786 0.000426731 0
0.00112589 0.000443871 0
0.00113234 0.000406671 0
0.00114754 0.000413371 0
0.001106 0.000442326 0
0.00109703 0.000424261 0
0.0011275 0.0003875 0
0.00113775 0.00038875 0
0.00110211 0.000480875 0
0.00108244 0.000471951 0
0.00109312 0.000458413 0
0.00111755 0.000399116 0
0.0010944 0.000392972 0
0.00110415 0.000405876 0
0.00108839 0.000407536 0
0.00106472 0.000476905 0
0.00107274 0.000457868 0
0.00108011 0.000392415 0
0.00106885 0.000404365 0
0.00106625 0.000388708 0
0.00105286 0.000419254 0
0.00105055 0.000395469 0
0.00104215 0.000439764 0
0.00106346 0.000440629 0
0.00100945 0.000451249 0
0.00102825 0.00045614 0
0.00101189 0.000468452 0
0.00107625 0.00038125 0
0.00105575 0.00037875 0
0.001066 0.00038 0
0.00103352 0.000476905 0
0.00101803 0.00048465 0
0.00103685 0.000389398 0
0.0010245 0.00038825 0
0.00103525 0.00037625 0
0.00101092 0.000399779 0
0.00101267 0.000382619 0
0.00101382 0.00042025 0
0.00103187 0.000405286 0
0.00103359 0.000424605 0
0.000987383 0.00045447 0
0.000999411 0.000435161 0
0.0009744 0.000433145 0
0.0010045 0.0003725 0
0.00101475 0.00037375 0
0.000970845 0.000465215 0
0.000952614 0.000467664 0
0.000961768 0.000449944 0
0.00099729 0.000387704 0
0.000978901 0.00039598 0
0.000985823 0.000381492 0
0.000962289 0.000393709 0
0.000974259 0.000381279 0
0.00097375 0.00036875 0
0.000963045 0.000376631 0
0.000958 0.0005 0
0.000932 0.0005 0
0.000947542 0.00048457 0
0.000949675 0.000385245 0
0.000936214 0.000389472 0
0.000940006 0.000374906 0
0.000966411 0.000412573 0
0.000944241 0.000407079 0
0.000903569 0.000424993 0
0.000921701 0.000402409 0
0.000927439 0.000427744 0
0.000889795 0.000409067 0
0.000903071 0.00040248 0
0.000925447 0.000377721 0
0.00093275 0.00036375 0
0.000907708 0.000387127 0
0.000911303 0.000370839 0
0.000911933 0.000455145 0
0.000930678 0.000473279 0
0.000911886 0.000482603 0
0.000887724 0.000388076 0
0.000899595 0.000375116 0
0.000902 0.00036 0
0.000889241 0.00036954 0
0.000836977 0.000459472 0
0.000836223 0.000483578 0
0.000820467 0.000474142 0
0.000871227 0.000403557 0
0.000861 0.000355 0
0.000868368 0.000365714 0
0.00085484 0.00036588 0
0.000847735 0.000402845 0
0.000823121 0.000421599 0
0.000826582 0.000398147 0
0.000846943 0.00042454 0
0.000838832 0.000378613 0
0.000835569 0.000363808 0
0.000844098 0.00036291 0
0.00085075 0.00035375 0
0.000851465 0.000477164 0
0.00083025 0.00035125 0
0.000822824 0.000368659 0
0.00081446 0.000357362 0
0.000805884 0.000371794 0
0.000753471 0.000477524 0
0.000738313 0.000473927 0
0.000739102 0.000461526 0
0.00079826 0.000358588 0
0.000788607 0.000376287 0
0.000781733 0.000357987 0
0.000816783 0.000384471 0
0.000807975 0.000404095 0
0.000752138 0.000404775 0
0.000767682 0.000417043 0
0.000749617 0.000421803 0
0.000752903 0.000384008 0
0.000738293 0.000393136 0
0.000772614 0.000394048 0
0.00076863 0.000371878 0
0.000765995 0.000354121 0
0.000779 0.000345 0
0.00071811 0.000453059 0
0.000738069 0.000437967 0
0.000752085 0.000365972 0
0.000728123 0.000374583 0
0.000741845 0.000354664 0
[...]
CELL_DATA 58684
VECTORS velocity DOUBLE
65.3766 0.246405 0
65.6906 0.000651971 0
65.6054 0.000432242 0
65.7006 0.0166047 0
65.6049 -0.0224108 0
65.7237 -0.00332573 0
65.6341 0.00551698 0
67.6683 -0.0169449 0
67.6199 -0.0230524 0
67.5469 -0.0147162 0
67.5747 -0.0184545 0
67.6114 -0.563597 0
67.5615 -0.181892 0
67.6633 -0.169054 0
67.5789 -0.286077 0
67.8211 -0.204822 0
67.6912 -0.0873343 0
68.0334 -0.13594 0
67.6124 -0.521165 0
68.4011 -0.0788016 0
67.7544 -0.0720595 0
68.0334 -0.334982 0
72.9325 -1.50494 0
67.7468 0.00216251 0
67.6812 0.0554076 0
67.7523 0.0197302 0
67.6307 0.169716 0
67.6174 0.0219591 0
67.6859 0.236683 0
67.5555 0.0814067 0
67.7707 0.142134 0
67.5432 0.0458383 0
67.6564 0.139452 0
67.7296 0.210298 0
67.7408 1.32786 0
67.6021 0.0949787 0
67.8336 0.176718 0
67.7725 0.417271 0
65.6976 -0.0227341 0
65.7042 0.0028963 0
65.7459 0.00526563 0
65.7493 -0.0173416 0
65.7429 0.00709369 0
65.7962 0.00150088 0
65.8111 -0.00850629 0
65.8187 -0.00937269 0
65.8386 0.0103618 0
65.901 -0.0142718 0
65.9127 -0.0134609 0
65.9415 0.0173693 0
66.028 -0.0198377 0
66.0488 -0.019591 0
66.0707 0.00151456 0
66.1194 0.0210966 0
66.1967 -0.0257866 0
66.2136 -0.00709891 0
66.2782 0.0244302 0
66.3887 -0.0470956 0
66.4144 -0.0353326 0
66.4546 -0.00257961 0
66.5394 0.0215043 0
66.5767 -0.0395816 0
66.6846 -0.00684417 0
66.7972 0.0192387 0
66.8201 -0.0332735 0
66.8501 -0.0158899 0
66.9304 -0.00418511 0
67.0251 0.0207591 0
67.0497 -0.0314857 0
67.1362 -0.00730915 0
67.2536 0.017175 0
67.2691 -0.0416254 0
67.3386 -0.0110423 0
67.427 -0.0730983 0
67.542 0.0212773 0
67.5816 -0.0333707 0
67.6335 -0.0318198 0
67.7804 0.0216954 0
67.7942 -0.0324304 0
68.0025 -0.010249 0
67.843 -0.016326 0
68.0263 0.0206467 0
68.1035 -0.0276148 0
68.0576 -0.0189213 0
68.28 -0.0141216 0
68.2418 0.000885212 0
68.1962 -0.00790671 0
68.2742 -0.0118985 0
68.4508 0.0113196 0
68.5095 0.00419274 0
68.3882 0.00874774 0
68.4709 -0.00339081 0
68.5854 0.00526936 0
68.549 -0.00945578 0
68.6023 0.00424559 0
68.7471 0.0138433 0
68.6839 -0.000912933 0
68.7027 0.0146337 0
68.769 0.0129453 0
68.804 0.00405438 0
68.88 0.0376773 0
68.8191 0.0315336 0
68.8905 0.0100699 0
68.9015 0.0449215 0
68.9449 0.0427175 0
68.9332 0.0554478 0
68.9679 0.00602711 0
68.9629 0.066737 0
68.9948 0.0774282 0
69.0755 0.06854 0
69.0459 0.0546254 0
69.0138 0.0695439 0
69.0929 0.106707 0
69.1129 0.0575875 0
69.1552 0.101113 0
69.137 0.0700261 0
69.2538 0.0189381 0
69.1901 0.125455 0
69.22 0.146604 0
69.297 0.134029 0
69.3576 0.115101 0
69.2638 0.0747663 0
69.3223 0.159094 0
69.4281 0.113729 0
69.4051 0.164854 0
69.3753 0.0778266 0
69.4272 0.153074 0
69.5205 0.0768565 0
69.4512 0.156186 0
69.5155 0.172605 0
69.65 0.0978894 0
69.5997 0.15862 0
69.5985 0.0893185 0
69.685 0.158755 0
69.6248 0.0647758 0
69.6286 0.172938 0
69.7851 0.15943 0
69.874 0.114923 0
69.9303 0.102385 0
69.7883 0.129129 0
69.8395 0.144294 0
69.8872 0.0339501 0
69.9488 0.120394 0
70.0036 0.1276 0
70.218 0.0377329 0
70.0344 0.0698888 0
70.0258 0.100435 0
70.0819 0.0809418 0
70.1542 0.0269571 0
70.2739 0.0344399 0
70.2864 0.0260861 0
70.571 -0.020067 0
70.3599 -0.00799447 0
70.3741 0.010015 0
70.4297 -0.0363904 0
70.4797 0.0082098 0
70.4463 -0.0545383 0
70.6001 -0.111873 0
70.8022 -0.134934 0
70.6871 -0.123134 0
70.9331 -0.191049 0
70.7308 -0.183294 0
70.9775 -0.06873 0
70.7582 -0.182066 0
70.9497 -0.264507 0
71.097 -0.102404 0
71.1031 -0.393677 0
71.1834 -0.388203 0
71.2101 -0.258054 0
71.3409 -0.23519 0
71.0765 -0.396892 0
71.1446 -0.465865 0
71.3146 -0.116029 0
71.2581 -0.550023 0
71.3437 -0.589164 0
71.2647 -0.425441 0
71.3991 -0.285664 0
71.4213 -0.381039 0
71.3602 -0.682122 0
71.404 -0.259387 0
71.4127 -0.676252 0
71.4119 -0.69953 0
71.4357 -0.806049 0
71.3918 -0.0215334 0
71.4825 -0.817462 0
71.3914 -0.642074 0
71.4153 -0.592292 0
71.4297 -0.685302 0
71.486 -0.909663 0
71.4823 -0.91649 0
71.4146 -0.209353 0
71.4546 -0.896172 0
71.493 -1.02155 0
71.494 -0.980199 0
71.3542 -0.216939 0
71.4586 -0.77951 0
71.5608 -1.09505 0
71.5049 -0.805906 0
71.4317 -0.690893 0
71.5303 -1.1183 0
71.5702 -1.13492 0
71.4029 -0.201729 0
71.5667 -1.18999 0
71.5881 -1.1178 0
71.585 -0.221178 0
71.6106 -1.16719 0
71.5513 -0.875625 0
71.6479 -0.73325 0
71.7131 -0.911209 0
71.6492 -1.04623 0
71.6759 -1.2281 0
71.6054 -0.443011 0
71.7801 -1.12894 0
71.7752 -1.29867 0
71.9343 -1.25874 0
71.7871 -0.0227607 0
71.849 -1.04696 0
71.9322 -1.2797 0
71.7063 -0.341679 0
71.986 -1.31564 0
72.0708 -0.790536 0
72.0422 -1.36355 0
72.2208 -0.443809 0
72.1654 -1.16423 0
72.1465 -1.33032 0
72.0855 -0.247569 0
72.3152 -1.35648 0
72.4795 -1.32257 0
72.324 -1.16576 0
72.3969 -0.745784 0
72.5176 -1.473 0
72.5881 -0.664187 0
72.9425 -0.113952 0
72.4245 -1.21585 0
72.6353 -1.45755 0
72.7606 -1.55378 0
72.948 -0.582868 0
72.9193 -1.39862 0
73.1235 -1.53127 0
73.1779 -0.203213 0
73.339 -1.54539 0
73.1796 -1.66221 0
73.1251 -1.30372 0
73.3776 -0.695057 0
73.5134 -0.825304 0
73.3996 -1.74067 0
73.8887 -0.00198642 0
73.5581 -1.86576 0
73.7652 -1.81474 0
73.6888 -1.90298 0
74.2818 -0.535189 0
74.0529 -1.66211 0
74.363 -1.74773 0
74.4891 0.000958113 0
74.4842 -2.07096 0
74.971 -1.90714 0
74.4939 -1.30136 0
74.5279 -0.627018 0
74.8189 -2.089 0
74.7597 -0.759622 0
75.1182 -0.0746782 0
74.9385 -1.53524 0
75.287 -2.03707 0
75.6323 -1.9603 0
75.2976 -0.281034 0
75.9386 -1.5081 0
75.811 -1.87051 0
75.5099 -0.0773098 0
76.0859 -1.97087 0
76.4907 -1.81847 0
76.3617 -0.870442 0
75.7426 0.0147165 0
76.8705 -1.54205 0
76.3901 -0.167825 0
76.7513 -0.0878811 0
76.8609 -1.2588 0
76.6816 -0.760633 0
77.5741 -0.97691 0
76.0647 0.192389 0
77.4662 -1.19706 0
77.3316 -0.253441 0
77.9304 -0.334194 0
75.8855 0.0643983 0
78.1127 0.557917 0
77.9414 0.830442 0
75.4765 0.142832 0
78.2927 0.0819957 0
78.4032 0.714339 0
76.4315 1.10112 0
76.0417 0.518474 0
77.33 0.668037 0
78.3679 1.29156 0
75.6942 0.259092 0
77.9846 2.11698 0
78.3142 1.46443 0
78.3137 1.6944 0
75.2417 1.08675 0
77.0852 2.26543 0
77.9451 2.45069 0
75.2543 0.190761 0
77.7662 2.89343 0
77.7169 2.7763 0
76.8159 3.97509 0
73.7408 0.263768 0
77.5622 3.77588 0
76.187 2.70753 0
74.9113 1.17383 0
74.6681 2.21259 0
77.3701 4.10192 0
76.6133 4.45308 0
74.1585 0.442286 0
76.4106 5.03713 0
65.608 0.0189426 0
65.6084 -0.00219423 0
65.6444 -0.00715225 0
65.6455 0.0178116 0
65.6377 -0.00730294 0
65.6902 -0.0014507 0
65.7033 0.00998181 0
65.7079 0.0125093 0
65.73 -0.010747 0
65.7885 0.0122387 0
65.8006 0.00923448 0
65.8268 -0.0173008 0
65.9062 0.0153233 0
65.9259 0.0131804 0
65.9465 -0.000562224 0
65.9948 -0.021248 0
66.0679 0.0207706 0
66.0854 0.00773951 0
66.1492 -0.0246318 0
66.2541 0.0412806 0
66.2805 0.0321102 0
66.4079 0.0425753 0
66.3202 -0.00224795 0
66.4818 0.0200273 0
66.6369 0.0213178 0
66.5427 0.00600578 0
66.7071 0.0114925 0
66.7853 0.000421214 0
66.8725 0.0448008 0
66.7513 0.0341724 0
66.9848 0.0043201 0
67.0824 0.0591531 0
66.9878 0.0370665 0
67.2702 0.0661973 0
67.3089 0.0391422 0
67.3743 0.0286761 0
67.2289 0.0398293 0
67.4235 0.0311315 0
67.5842 0.00826036 0
67.4739 0.0310749 0
67.7424 0.0447898 0
67.7649 0.00423008 0
67.8408 0.0104124 0
67.709 0.036596 0
67.8963 0.0208009 0
68.0351 0.0106166 0
68.1226 0.0169302 0
68.0259 0.0278185 0
68.1635 0.0219016 0
68.1924 0.0143881 0
68.3506 -0.005837 0
68.2963 -0.00576528 0
68.3555 0.00219237 0
68.4361 0.0184519 0
68.488 -0.00121303 0
68.503 -0.00333362 0
68.539 0.0116579 0
68.6228 0.0035419 0
68.535 0.0110329 0
68.6314 0.00616808 0
68.6486 -0.00718014 0
68.6987 -0.0136476 0
68.7254 -0.00745898 0
68.758 -0.014532 0
68.5566 0.0123322 0
68.8178 -0.0245861 0
68.8964 -0.0405029 0
68.853 -0.0260737 0
68.813 -0.0108753 0
68.9355 -0.0479755 0
68.9575 -0.0490962 0
69.0396 -0.0335569 0
68.9185 -0.0326741 0
69.037 -0.0614544 0
69.0803 -0.0692755 0
68.9443 -0.00803009 0
69.0575 -0.0498971 0
69.1718 -0.0782524 0
69.0823 -0.0374101 0
69.2045 -0.0790514 0
69.296 -0.0921483 0
69.2393 -0.0638768 0
69.3295 -0.0331227 0
69.3301 -0.0874835 0
69.3779 -0.0833209 0
69.3792 -0.0142008 0
69.448 -0.0917177 0
69.3772 -0.0721032 0
69.5331 -0.0878569 0
69.4256 -0.0659616 0
69.549 -0.0841322 0
69.7242 -0.0769989 0
69.699 -0.0361112 0
69.6446 -0.0531816 0
69.796 -0.072697 0
69.7782 -0.0701631 0
69.6616 -0.0545024 0
69.8508 -0.0847567 0
69.9359 -0.0700651 0
69.933 -0.0275647 0
70.0493 -0.0377056 0
70.0534 -0.0632484 0
70.0721 -0.0476144 0
69.9675 -0.0300232 0
70.1682 -0.0466102 0
70.2362 -0.0230334 0
70.4241 -0.0195703 0
70.2605 -0.0323431 0
70.3939 0.0139979 0
70.4315 0.0250758 0
70.2476 0.00817244 0
70.4854 0.0348685 0
70.6143 0.0485844 0
70.7189 0.0186354 0
70.5588 0.0393327 0
70.7731 0.10622 0
70.8059 0.0826373 0
70.5676 0.0214318 0
70.8403 0.0985015 0
71.027 0.196689 0
70.9149 0.0448307 0
71.0462 0.161749 0
71.1054 0.065664 0
71.1559 0.200845 0
71.0519 0.0943398 0
71.1583 0.237951 0
71.2575 0.284498 0
71.2415 0.0750567 0
71.2671 0.284308 0
71.3561 0.362033 0
71.3669 0.112746 0
71.2536 0.230906 0
71.3745 0.328833 0
71.3918 0.389895 0
71.3633 0.0619123 0
71.4042 0.375663 0
71.4503 0.502438 0
71.4224 0.442857 0
71.3932 0.151307 0
71.4204 0.469705 0
71.4034 0.180017 0
71.4246 0.357185 0
71.4443 0.50696 0
71.4373 0.595391 0
71.414 0.622182 0
71.4003 0.0203442 0
71.3998 0.714339 0
71.3725 0.718132 0
71.3056 0.647463 0
71.2748 0.346639 0
71.2519 0.384328 0
71.3437 0.713022 0
71.3572 0.195944 0
71.3043 0.834633 0
71.2739 0.802824 0
71.266 0.75232 0
71.2207 0.221987 0
71.2189 0.862491 0
71.2935 1.03467 0
71.1704 0.427526 0
71.2304 0.454449 0
71.2264 0.869647 0
71.2943 1.1229 0
71.2136 0.279007 0
71.3342 1.17894 0
71.3186 1.18293 0
71.1976 0.251063 0
71.4411 1.35177 0
71.4567 1.32089 0
71.5028 1.17141 0
71.3325 0.538764 0
71.3231 0.603894 0
71.397 1.29242 0
71.2707 0.400749 0
71.5864 1.51548 0
71.6242 1.45303 0
71.6359 1.38003 0
71.3846 0.221574 0
71.8357 1.59224 0
71.8431 1.64149 0
71.7105 0.938559 0
72.0932 1.30756 0
71.7884 0.789536 0
71.9303 1.58636 0
71.6668 0.488292 0
72.1976 1.83383 0
72.2213 1.78653 0
71.6919 0.393041 0
72.3479 1.65875 0
72.6768 1.86468 0
72.5131 1.85214 0
72.5105 0.448529 0
73.1244 1.93619 0
73.2029 2.06891 0
72.306 1.30066 0
72.9946 1.5643 0
72.4843 0.806423 0
73.5483 2.16041 0
72.8542 0.251812 0
73.6375 2.07002 0
73.6453 1.9743 0
72.5247 0.207301 0
73.48 1.79565 0
74.2076 2.04694 0
74.3824 2.02459 0
73.6028 0.552328 0
74.5096 1.96084 0
74.6081 2.09159 0
73.414 1.3492 0
74.7381 1.3615 0
73.938 0.523024 0
74.8961 2.03622 0
74.0661 0.188537 0
75.1578 1.89745 0
75.3191 1.83909 0
73.7024 0.146521 0
75.1149 1.56362 0
75.7761 1.68315 0
76.0657 1.57368 0
74.5909 0.339303 0
75.8499 1.50207 0
76.286 1.5151 0
75.3331 1.31368 0
76.2958 0.84082 0
74.8879 0.232053 0
76.0201 1.37622 0
75.128 0.0832186 0
76.6783 1.37412 0
76.8099 1.14093 0
74.818 0.0882842 0
76.6256 0.708949 0
77.0512 0.788219 0
77.3257 0.620093 0
75.7617 -0.0330744 0
77.4621 0.399938 0
77.5495 0.239304 0
76.0759 -0.175847 0
77.5808 0.248403 0
77.0803 -0.363923 0
75.9722 0.0542437 0
75.6584 0.108033 0
77.731 -0.029884 0
77.6674 -0.506746 0
77.9801 -0.610283 0
75.6576 -0.0164073 0
77.5802 -0.943061 0
78 -1.24288 0
75.9116 -0.10012 0
77.4089 -0.945634 0
78.0066 -1.70396 0
77.0945 -1.35804 0
76.1253 -0.523428 0
77.9148 -1.9699 0
77.825 -2.24587 0
76.9018 -0.843039 0
76.7005 -2.38335 0
75.438 -1.9379 0
77.7335 -2.28458 0
75.5212 -0.319043 0
77.5919 -2.98261 0
75.8381 5.39274 0
76.3052 4.91593 0
72.8415 1.34518 0
75.7915 5.29937 0
74.3195 4.84196 0
75.1672 5.76267 0
73.3229 0.540433 0
74.5448 5.83752 0
73.8164 5.70508 0
72.3552 0.67932 0
73.7447 6.08051 0
77.5382 -3.27001 0
75.6604 -0.199975 0
77.3717 -3.5138 0
76.6295 -3.80427 0
76.1592 -3.30341 0
75.2452 -0.215659 0
76.6962 -4.25352 0
73.0667 5.50713 0
76.1043 -5.07508 0
75.1275 -1.04642 0
75.9329 -4.8992 0
75.1993 -5.5651 0
71.4713 1.63014 0
74.9643 -5.41418 0
76.0024 -3.10014 0
75.4667 -4.93673 0
74.2304 -3.5943 0
73.7071 -0.606059 0
74.8445 -4.95924 0
74.3038 -5.1787 0
72.5796 5.76973 0
74.3229 -5.27103 0
74.3324 -0.326484 0
73.6455 -5.42173 0
73.1471 -5.89552 0
73.2492 -0.389779 0
72.4215 -5.94521 0
72.9165 -4.37027 0
71.6321 -0.442578 0
71.7639 -6.00209 0
71.9366 -3.33095 0
73.1094 -2.66691 0
72.2752 -5.18437 0
71.4535 -5.40655 0
73.3787 3.10802 0
70.7866 0.360818 0
73.0016 2.08335 0
72.0938 -0.033367 0
71.0745 -5.79594 0
72.3981 5.43157 0
70.6144 0.266272 0
71.9767 4.59702 0
70.4887 -5.74147 0
71.7404 -1.18323 0
70.0207 -4.17706 0
71.8171 6.1598 0
69.7322 1.47833 0
71.7943 6.05574 0
70.3946 5.09256 0
69.9155 0.297155 0
70.8724 5.32792 0
70.3954 -4.345 0
71.3899 -0.350605 0
69.907 -5.86235 0
69.9665 -5.6676 0
71.0769 5.73103 0
69.7919 5.5015 0
69.3553 0.0225425 0
70.4897 5.67801 0
69.1716 3.57156 0
69.4377 1.68337 0
69.2513 -5.81057 0
69.7551 -0.805135 0
69.5081 -5.70782 0
68.8543 5.74608 0
68.848 -5.36704 0
69.0415 -0.784954 0
68.9892 -2.43426 0
68.0833 -5.15424 0
70.059 -2.8422 0
67.9458 -4.97156 0
68.6397 -0.215303 0
67.3166 -4.78625 0
68.5815 2.06644 0
68.8199 0.327723 0
68.62 4.88175 0
68.3782 0.0802715 0
68.3797 5.66909 0
68.2939 5.34801 0
68.1431 0.152361 0
67.7979 4.70381 0
68.0045 0.12428 0
68.2502 -4.48205 0
68.6541 -0.411813 0
69.0589 4.21184 0
67.8048 1.09782 0
67.5961 4.4331 0
67.2636 -4.7875 0
68.7558 -0.180935 0
66.1294 -4.06375 0
67.8448 -0.646918 0
66.6648 -4.05544 0
68.157 1.84635 0
67.7913 0.0872453 0
68.7383 -3.65907 0
67.7661 -0.0884546 0
66.2527 -3.82456 0
67.1706 4.01469 0
67.3066 -3.00192 0
67.7409 -0.267782 0
66.5016 -3.28904 0
67.8521 2.22064 0
66.5228 1.39088 0
66.8529 3.47921 0
67.7662 -1.18809 0
66.4036 -3.61769 0
67.7271 0.57288 0
66.6927 4.63375 0
67.6992 -1.79317 0
67.7854 -0.0458278 0
66.2068 -3.30339 0
66.6155 4.20028 0
67.8169 1.03703 0
66.6102 3.30847 0
66.4326 3.24776 0
67.8289 0.525114 0
65.9277 2.90253 0
65.5959 -2.91882 0
67.791 -0.376708 0
65.3423 -2.93833 0
67.1062 -1.42499 0
67.8311 -0.198279 0
65.0567 -2.01839 0
65.8549 3.62588 0
67.8409 0.89163 0
66.8638 2.30953 0
65.4613 -1.78881 0
67.8614 -0.451416 0
64.9528 -1.67734 0
65.049 2.65029 0
67.9134 0.379166 0
65.3474 2.52088 0
65.6098 2.0418 0
67.8189 0.0356155 0
65.0155 2.18431 0
65.9283 -1.06531 0
67.8633 -0.773513 0
65.3613 -0.960631 0
64.4626 -0.607206 0
67.468 -0.799804 0
64.6429 -0.508909 0
67.2503 0.763391 0
67.8811 0.0813703 0
66.6186 1.70485 0
64.9568 1.72374 0
67.8767 0.0771686 0
64.5286 1.1315 0
67.6955 -0.279179 0
67.8102 -0.088511 0
64.524 -0.152114 0
64.8997 -0.0309962 0
67.9065 -0.0879834 0
66.6054 0.204224 0
65.1705 0.388134 0
67.8653 -0.0670078 0
67.36 -3.98285 0
67.7123 -0.692578 0
67.753 0.0798035 0
67.89 4.83488 0
68.4622 -5.35356 0
70.5152 -0.675263 0
69.2257 0.727245 0
70.2405 5.96131 0
67.8133 0.362825 0
65.5014 3.4673 0
65.1751 -2.01953 0
67.6986 -0.220736 0
67.6803 -0.882857 0
67.6134 -2.57586 0
67.6928 1.17069 0
67.9036 0.214792 0
67.9237 -0.00952017 0
64.9235 1.50543 0
68.3409 0.347942 0
67.9267 1.34155 0
68.081 -1.11071 0
69.0806 -0.516721 0
73.2537 -0.869977 0
72.785 -5.82789 0
74.0277 5.76226 0
73.0508 0.313862 0
67.7083 1.45818 0
68.8455 5.51851 0
68.1965 -4.9128 0
68.4962 -1.68603 0
67.3044 -1.17541 0
65.7791 -0.145822 0
66.6915 4.12639 0
67.8306 1.55021 0
67.7899 -1.54499 0
65.6684 -3.31165 0
77.1866 -3.92293 0
75.0435 -0.506251 0
74.8735 0.578767 0
77.6411 3.47921 0
67.6916 -1.19695 0
67.6885 -0.0254586 0
67.6227 0.193373 0
68.1302 0.613877 0
71.3129 0.475762 0
71.0423 2.83318 0
69.8845 -1.41271 0
72.1946 -1.17771 0
70.2802 3.41422 0
72.178 5.8133 0
71.4763 -5.93752 0
70.8951 -1.30568 0
73.8707 1.17558 0
74.5484 3.71342 0
73.5611 -1.97091 0
74.3603 -0.024029 0
75.9626 -0.196304 0
78.0112 -0.822524 0
78.0032 -0.37718 0
75.7451 0.0347594 0
75.1495 -0.00686309 0
76.8524 1.13794 0
76.4846 -1.63492 0
75.5752 -0.0551832 0
68.2752 -1.11649 0
67.7951 -0.590213 0
67.869 1.17348 0
68.2929 0.716799 0
67.8066 1.29608 0
67.7383 0.261185 0
67.7617 -0.09221 0
67.7864 -1.33128 0
75.7388 0.738978 0
76.6612 1.42648 0
75.8134 -0.887732 0
75.7589 -0.13271 0
66.6672 -0.743063 0
67.9379 -0.221808 0
67.6963 -0.566101 0
67.8661 -0.530261 0
67.8241 0.195032 0
67.7455 1.28443 0
75.4359 1.7484 0
74.3313 0.295466 0
74.7497 0.00471191 0
74.4125 -1.9372 0
70.2265 -0.019421 0
69.7277 -2.02213 0
70.442 1.27067 0
69.3829 0.325639 0
67.752 2.86442 0
67.2299 5.11187 0
67.2713 -4.37655 0
68.0633 -2.30565 0
68.1825 -1.56809 0
67.5925 -1.71084 0
67.7859 3.29267 0
67.9167 1.66235 0
75.6951 -0.105506 0
75.8218 0.0424155 0
75.6964 -0.0290935 0
76.5024 0.411767 0
69.0175 -3.74491 0
69.7402 -3.61155 0
69.434 3.26279 0
69.7198 5.93206 0
68.5569 -2.83349 0
69.2281 -1.67965 0
69.0646 2.23376 0
68.3905 1.13098 0
74.1016 2.18861 0
73.2662 0.280674 0
73.5973 -0.00807976 0
72.9972 -1.60638 0
67.5764 0.895408 0
67.8509 0.0138909 0
74.8371 -0.184681 0
75.5762 -0.952053 0
75.478 0.488259 0
74.5715 0.0862694 0
68.0908 -0.81513 0
67.883 -1.29627 0
68.3396 1.28791 0
67.7486 0.951941 0
67.7746 -0.145463 0
67.7121 -1.01267 0
67.6092 0.515088 0
67.7341 0.0976456 0
65.2591 1.24374 0
67.3353 1.14861 0
74.0944 -2.21903 0
76.2526 -4.66532 0
76.8628 4.42744 0
73.9654 1.63415 0
67.2177 -1.65743 0
65.7054 -2.05081 0
72.1004 0.326 0
72.3283 1.78571 0
71.2254 0.164057 0
71.7877 1.65604 0
72.4085 -1.34458 0
72.2585 -0.234456 0
71.8144 -1.23347 0
71.6456 -0.0262982 0
73.8462 -0.432721 0
73.7666 -1.13114 0
73.9262 0.7608 0
73.5776 0.00625958 0
67.8898 0.191672 0
67.8155 0.72403 0
67.0199 0.332892 0
65.4504 0.605589 0
67.9319 -0.372308 0
67.8216 -0.186532 0
67.6554 0.270677 0
67.607 -0.730412 0
77.8645 -2.00249 0
75.8141 -1.34651 0
76.7058 1.68219 0
78.3211 0.875543 0
67.5358 -0.102177 0
67.6249 -0.577198 0
67.6552 0.0480559 0
67.695 0.33723 0
72.7704 -0.355239 0
72.7092 -0.88762 0
72.9655 0.732253 0
72.313 0.238151 0
71.1969 0.353856 0
71.2239 1.0036 0
71.6169 -1.23918 0
71.4348 -0.309682 0
67.9063 -0.95417 0
68.5831 -1.57333 0
68.1206 1.22623 0
67.8796 1.11655 0
68.4947 2.07509 0
67.6129 1.49012 0
67.8606 -1.57781 0
68.2685 -2.01483 0
76.3924 -0.377538 0
76.9276 0.754937 0
76.9908 -1.30849 0
76.8538 0.166479 0
67.726 -1.24335 0
67.7346 -1.42073 0
67.7643 1.28646 0
67.5288 1.12443 0
71.3108 0.960297 0
71.2741 0.297724 0
71.4049 -0.233219 0
71.5176 -1.0247 0
72.7825 2.9745 0
74.1072 5.10076 0
73.5364 -5.86084 0
73.4889 -2.31052 0
66.0804 -2.4305 0
67.5758 -2.49082 0
72.538 -2.08791 0
73.0171 -0.77076 0
71.8563 0.337984 0
74.1098 2.27889 0
65.734 3.30762 0
67.1134 1.92856 0
71.8809 -0.0978196 0
72.1088 -0.911092 0
71.8932 0.759318 0
71.797 0.199789 0
75.279 -0.281212 0
75.1859 -1.13745 0
75.6545 1.57445 0
74.9937 0.220263 0
71.369 0.995321 0
69.9737 0.259897 0
70.8725 -0.244483 0
71.332 -2.10707 0
75.3213 0.636418 0
75.4969 1.5272 0
75.3066 -1.9249 0
75.905 -0.527536 0
70.6378 -2.6134 0
71.4216 -1.22343 0
70.8548 1.87987 0
72.6586 4.19923 0
71.3936 0.556303 0
71.3714 0.107772 0
71.3547 -0.227378 0
71.4518 -0.77092 0
71.4976 -0.373709 0
71.5492 -0.0219282 0
71.3615 0.211856 0
71.2516 0.868118 0
68.7894 0.367865 0
68.6531 0.947327 0
68.8901 -0.840265 0
69.5205 -0.259487 0
70.0951 2.00962 0
68.8607 1.41293 0
68.5269 -2.06176 0
68.0722 -2.06997 0
76.028 -0.391228 0
75.8834 -0.217093 0
75.942 0.260442 0
76.4225 0.352513 0
68.97 2.74049 0
69.2383 1.87565 0
68.366 -0.619062 0
68.2277 -0.233765 0
68.1098 0.220364 0
68.6187 0.644132 0
67.0981 -0.685283 0
67.6374 -1.29672 0
77.5599 -2.76141 0
75.918 -1.55091 0
75.6436 2.85122 0
77.9216 2.86467 0
67.7477 -1.25475 0
67.8228 -0.098817 0
67.7155 0.213804 0
67.7495 1.21441 0
67.6511 0.132263 0
67.6848 0.765903 0
67.7779 -0.411428 0
67.8685 -0.0269521 0
66.3792 -0.205672 0
64.5104 0.125692 0
72.7966 2.29569 0
75.6662 2.29123 0
74.6892 -1.83957 0
74.9896 -3.61356 0
67.6247 1.58434 0
67.4354 0.935222 0
67.8086 -0.0240302 0
67.863 -0.0836095 0
69.4955 4.75321 0
68.0388 2.88679 0
69.1962 -3.03169 0
68.4952 -5.55403 0
67.6067 0.817567 0
67.8542 0.60121 0
73.956 1.00984 0
74.428 2.08944 0
73.464 -1.70152 0
73.7992 -0.374431 0
71.3647 -0.268133 0
71.3436 -0.170951 0
71.1913 0.140004 0
71.2969 0.708008 0
77.9475 -0.360352 0
77.2424 0.934591 0
76.8262 -0.324214 0
77.8225 -0.284919 0
67.7541 0.105255 0
67.2531 -1.31855 0
67.8117 1.42103 0
67.9339 1.50223 0
68.0773 -1.64084 0
67.7736 -1.26336 0
67.8776 0.075262 0