# vtk DataFile Version 3.0
Unstructured Grid for Triangles
ASCII
DATASET UNSTRUCTURED_GRID
POINTS 29612 DOUBLE
-0.000272397 1.23686e-05 0
-0.000295789 9.5838e-06 0
-0.000277865 -3.1235e-06 0
0.002024 0.0005 0
0.00203975 0.00049875 0
0.00205 0.0005 0
0.00203975 -0.00049875 0
0.002024 -0.0005 0
0.00205 -0.0005 0
0.0020295 0.0004975 0
0.0020295 -0.0004975 0
0.00201925 0.00049625 0
0.00201925 -0.00049625 0
-0.000529747 -0.000479887 0
-0.00055 -0.0005 0
-0.000524 -0.0005 0
-0.000505983 -0.000484325 0
-0.000498 -0.0005 0
-0.000472 -0.0005 0
-0.000483864 -0.000487761 0
-0.000446 -0.0005 0
-0.000459 -0.000484239 0
-0.000429453 -0.000424878 0
-0.000447486 -0.000420717 0
-0.000441829 -0.000436609 0
-0.000512578 -0.000462101 0
-0.000493078 -0.000453594 0
-0.00050706 -0.000439006 0
-0.000419243 -0.000477545 0
-0.000440307 -0.000471837 0
-0.00043691 -0.000486724 0
-0.000516129 -0.000420948 0
-0.000495355 -0.000415432 0
-0.000511646 -0.00040128 0
-0.000394697 -0.000481197 0
-0.000406302 -0.000455143 0
-0.000537257 -0.000388197 0
-0.000531099 -0.000407297 0
-0.000523982 -0.000388328 0
-0.000370063 -0.000472956 0
-0.000368 -0.0005 0
-0.00035308 -0.000485302 0
-0.0005072 -0.00037867 0
-0.000485506 -0.000383975 0
-0.000490949 -0.000359622 0
-0.000337127 -0.000484331 0
-0.000316 -0.0005 0
-0.000326495 -0.00047415 0
-0.00055 -0.00035 0
-0.000531201 -0.000370361 0
-0.000528367 -0.000346817 0
-0.000363898 -0.000448809 0
-0.000383315 -0.000460336 0
-3.26269e-05 -0.000415503 0
-5.99662e-05 -0.000409556 0
-5.46944e-05 -0.000429488 0
-0.000529747 0.000479887 0
-0.00055 0.0005 0
-0.00055 0.000475 0
-0.00055 0.00045 0
-0.000534834 0.000429171 0
-0.000526943 0.000442611 0
-0.000534026 0.000460176 0
-0.000531099 0.000407297 0
-0.000511672 0.000401178 0
-0.000516129 0.000420948 0
-0.000524 0.0005 0
-0.000505983 0.000484325 0
-0.000531201 0.000370361 0
-0.0005072 0.00037867 0
-0.000523982 0.000388328 0
-0.00048341 0.000469132 0
-0.000483679 0.000487539 0
-0.000528367 0.000346817 0
-0.00055 0.000325 0
-0.000525657 0.000328474 0
-0.000498 0.0005 0
-0.000530382 0.0003125 0
-0.000419243 0.000477545 0
-0.000440015 0.00047335 0
-0.000425917 0.000463678 0
-0.000435138 0.000262661 0
-0.000414982 0.000274462 0
-0.000435654 0.000285217 0
-0.000459 0.000484239 0
-0.000436852 0.000487027 0
-0.000446 0.0005 0
-0.000533308 0.000292503 0
-0.00055 0.000275 0
-0.000523377 0.000276953 0
-0.000425282 0.000446352 0
-0.000409368 0.000435728 0
-0.000406302 0.000455143 0
0.002009 0.000495 0
0.001998 0.0005 0
0.00199875 0.00049375 0
0.0019885 0.0004925 0
0.001972 0.0005 0
0.00197825 0.00049125 0
0.001968 0.00049 0
0.00195775 0.00048875 0
0.001946 0.0005 0
0.0019475 0.0004875 0
0.00193725 0.00048625 0
0.00192 0.0005 0
0.001927 0.000485 0
0.00191675 0.00048375 0
0.0019065 0.0004825 0
0.001894 0.0005 0
0.00189625 0.00048125 0
0.001886 0.00048 0
0.001868 0.0005 0
0.00187575 0.00047875 0
0.0018655 0.0004775 0
0.00185515 0.00048575 0
0.001842 0.0005 0
0.001845 0.000475 0
0.00185525 0.00047625 0
0.00182564 0.0004829 0
0.001816 0.0005 0
0.0018245 0.0004725 0
0.00183475 0.00047375 0
0.00181425 0.00047125 0
0.00180295 0.000482657 0
0.00179 0.0005 0
0.00179375 0.00046875 0
0.001804 0.00047 0
0.00178168 0.000480619 0
0.001764 0.0005 0
0.00177325 0.00046625 0
0.0017835 0.0004675 0
0.00176428 0.000476631 0
0.001763 0.000465 0
0.001738 0.0005 0
0.001751 0.000484164 0
0.00175275 0.00046375 0
0.00174025 0.000475632 0
0.001712 0.0005 0
0.00172615 0.000478449 0
0.001722 0.00046 0
0.00173225 0.00046125 0
0.0017015 0.0004575 0
0.00171243 0.00047381 0
0.00169554 0.000479999 0
0.001686 0.0005 0
0.00167507 0.000479751 0
0.00168498 0.000464861 0
0.00166 0.0005 0
0.0016558 0.000471459 0
0.00167135 0.000462887 0
0.001681 0.000455 0
0.0016605 0.0004525 0
0.00167075 0.00045375 0
0.00164059 0.000461599 0
0.0016394 0.000479551 0
0.00162881 0.00046615 0
0.00162975 0.00044875 0
0.00165025 0.00045125 0
0.00164 0.00045 0
0.00161754 0.000458641 0
0.00161722 0.000478101 0
0.00159956 0.000458294 0
0.00160925 0.00044625 0
0.0016195 0.0004475 0
0.00157667 0.000460322 0
0.00158875 0.00044375 0
0.00159194 0.000480155 0
0.001599 0.000445 0
0.0015785 0.0004425 0
0.00155808 0.000456757 0
0.00155647 0.000476701 0
0.00154059 0.000466642 0
0.00153756 0.000450083 0
0.00154839 0.000450446 0
0.00156825 0.00044125 0
0.00151954 0.000480508 0
0.00154052 0.00048477 0
0.00153 0.0005 0
0.00154775 0.00043875 0
0.00152142 0.000456625 0
0.00152821 0.000445753 0
0.0015375 0.0004375 0
0.001504 0.0005 0
0.00149644 0.000485168 0
0.00151787 0.000443178 0
0.00152725 0.00043625 0
0.00150675 0.00043375 0
0.001517 0.000435 0
0.00148119 0.000450887 0
0.00148072 0.000475756 0
0.00146584 0.000463516 0
0.00150008 0.00046396 0
0.00149351 0.00044543 0
0.0015061 0.000446252 0
0.001476 0.00043 0
0.00148625 0.00043125 0
0.00146492 0.000482975 0
0.00144888 0.000473562 0
0.00146676 0.000444259 0
0.00145255 0.000453656 0
0.00145652 0.000438669 0
0.00141401 0.000479821 0
0.001426 0.0005 0
0.0014 0.0005 0
0.00144374 0.000438862 0
0.0014555 0.0004275 0
0.001435 0.000425 0
0.00144525 0.00042625 0
0.00142746 0.000438121 0
0.00141288 0.000443191 0
0.00141707 0.000432778 0
0.0013921 0.000438992 0
0.00140355 0.00045932 0
0.00138302 0.00045922 0
0.00142912 0.000458869 0
0.00140592 0.000430037 0
0.0014145 0.0004225 0
0.00136458 0.00045869 0
0.00137106 0.00044063 0
0.001394 0.00042 0
0.00138259 0.000428915 0
0.00137484 0.000477094 0
0.00139166 0.000478902 0
0.0013586 0.000478984 0
0.00133449 0.000478649 0
0.00134717 0.000461848 0
0.00137256 0.000425134 0
0.00135323 0.000424541 0
0.00136325 0.00041625 0
0.00136122 0.00042876 0
0.00131206 0.000447284 0
0.00133168 0.000456738 0
0.00131773 0.000465243 0
0.00134756 0.000440343 0
0.00132747 0.000436463 0
0.00133483 0.000426786 0
0.00131081 0.00041867 0
0.00132382 0.000422815 0
0.00131507 0.00043122 0
0.00131059 0.000480123 0
0.0013325 0.0004125 0
0.0012915 0.0004075 0
0.0012982 0.000418199 0
0.00128915 0.000426216 0
0.00126366 0.000447574 0
0.00127331 0.000430908 0
0.00128781 0.000444872 0
0.00125336 0.000428376 0
0.00130218 0.000431077 0
0.00127894 0.000416344 0
0.00124774 0.000469608 0
0.00127668 0.000464148 0
0.00126591 0.00048331 0
0.00126722 0.000418415 0
0.00125768 0.000411931 0
0.00124326 0.000413546 0
0.0012505 0.0004025 0
0.00122408 0.000450118 0
0.00120276 0.000447432 0
0.0012139 0.000432235 0
0.00124336 0.000444132 0
0.00123056 0.000427595 0
0.00122977 0.000409049 0
0.0012185 0.000469217 0
0.00122676 0.000485947 0
0.00120525 0.000486094 0
0.00121479 0.000413153 0
0.00119547 0.000424221 0
0.00120249 0.000407448 0
0.00119925 0.00039625 0
0.00119346 0.000406114 0
0.00117479 0.000447279 0
0.00114726 0.000445259 0
0.0011571 0.000427814 0
0.00119443 0.000466611 0
0.00117447 0.000421596 0
0.00118421 0.00040752 0
0.00117409 0.000404437 0
0.00116775 0.000470073 0
0.001179 0.0004855 0
0.00115473 0.000484802 0
0.0011685 0.0003925 0
0.00117875 0.00039375 0
0.00115454 0.000400551 0
0.001148 0.00039 0
0.00115825 0.00039125 0
0.00111703 0.000423398 0
0.00113786 0.000426731 0
0.00112589 0.000443871 0
0.00113234 0.000406671 0
0.00114754 0.000413371 0
0.001106 0.000442326 0
0.00109703 0.000424261 0
0.0011275 0.0003875 0
0.00113775 0.00038875 0
0.00110211 0.000480875 0
0.00108244 0.000471951 0
0.00109312 0.000458413 0
0.00111755 0.000399116 0
0.0010944 0.000392972 0
0.00110415 0.000405876 0
0.00108839 0.000407536 0
0.00106472 0.000476905 0
0.00107274 0.000457868 0
0.00108011 0.000392415 0
0.00106885 0.000404365 0
0.00106625 0.000388708 0
0.00105286 0.000419254 0
0.00105055 0.000395469 0
0.00104215 0.000439764 0
0.00106346 0.000440629 0
0.00100945 0.000451249 0
0.00102825 0.00045614 0
0.00101189 0.000468452 0
0.00107625 0.00038125 0
0.00105575 0.00037875 0
0.001066 0.00038 0
0.00103352 0.000476905 0
0.00101803 0.00048465 0
0.00103685 0.000389398 0
0.0010245 0.00038825 0
0.00103525 0.00037625 0
0.00101092 0.000399779 0
0.00101267 0.000382619 0
0.00101382 0.00042025 0
0.00103187 0.000405286 0
0.00103359 0.000424605 0
0.000987383 0.00045447 0
0.000999411 0.000435161 0
0.0009744 0.000433145 0
0.0010045 0.0003725 0
0.00101475 0.00037375 0
0.000970845 0.000465215 0
0.000952614 0.000467664 0
0.000961768 0.000449944 0
0.00099729 0.000387704 0
0.000978901 0.00039598 0
0.000985823 0.000381492 0
0.000962289 0.000393709 0
0.000974259 0.000381279 0
0.00097375 0.00036875 0
0.000963045 0.000376631 0
0.000958 0.0005 0
0.000932 0.0005 0
0.000947542 0.00048457 0
0.000949675 0.000385245 0
0.000936214 0.000389472 0
0.000940006 0.000374906 0
0.000966411 0.000412573 0
0.000944241 0.000407079 0
0.000903569 0.000424993 0
0.000921701 0.000402409 0
0.000927439 0.000427744 0
0.000889795 0.000409067 0
0.000903071 0.00040248 0
0.000925447 0.000377721 0
0.00093275 0.00036375 0
0.000907708 0.000387127 0
0.000911303 0.000370839 0
0.000911933 0.000455145 0
0.000930678 0.000473279 0
0.000911886 0.000482603 0
0.000887724 0.000388076 0
0.000899595 0.000375116 0
0.000902 0.00036 0
0.000889241 0.00036954 0
0.000836977 0.000459472 0
0.000836223 0.000483578 0
0.000820467 0.000474142 0
0.000871227 0.000403557 0
0.000861 0.000355 0
0.000868368 0.000365714 0
0.00085484 0.00036588 0
0.000847735 0.000402845 0
0.000823121 0.000421599 0
0.000826582 0.000398147 0
0.000846943 0.00042454 0
0.000838832 0.000378613 0
0.000835569 0.000363808 0
0.000844098 0.00036291 0
0.00085075 0.00035375 0
0.000851465 0.000477164 0
0.00083025 0.00035125 0
0.000822824 0.000368659 0
0.00081446 0.000357362 0
0.000805884 0.000371794 0
0.000753471 0.000477524 0
0.000738313 0.000473927 0
0.000739102 0.000461526 0
0.00079826 0.000358588 0
0.000788607 0.000376287 0
0.000781733 0.000357987 0
0.000816783 0.000384471 0
0.000807975 0.000404095 0
0.000752138 0.000404775 0
0.000767682 0.000417043 0
0.000749617 0.000421803 0
0.000752903 0.000384008 0
0.000738293 0.000393136 0
0.000772614 0.000394048 0
0.00076863 0.000371878 0
0.000765995 0.000354121 0
0.000779 0.000345 0
0.00071811 0.000453059 0
0.000738069 0.000437967 0
0.000752085 0.000365972 0
0.000728123 0.000374583 0
0.000741845 0.000354664 0
[...]
CELL_DATA 58684
VECTORS velocity DOUBLE
65.8155 0.24518 0
68.2816 -0.000238811 0
68.1316 -0.000121106 0
68.3055 -0.00927222 0
68.1545 0.0111866 0
68.3132 -0.00740061 0
68.1647 0.00760132 0
67.7779 -0.0099975 0
67.7715 -0.0465992 0
67.8273 -0.0076114 0
67.8727 -0.00822414 0
67.8969 -0.282481 0
67.7965 -0.179702 0
67.9268 -0.0887165 0
67.7826 -0.326765 0
68.0238 -0.121726 0
67.7815 -0.270291 0
68.2587 -0.116869 0
67.8364 -0.463928 0
68.6797 -0.0698829 0
67.8154 -0.270951 0
68.2497 -0.281476 0
73.7282 -1.16978 0
67.7769 0.0325662 0
67.7567 0.138759 0
67.7776 0.0674986 0
67.7939 0.30748 0
67.7735 0.046545 0
67.7992 0.397017 0
67.8412 0.070822 0
67.8191 0.335175 0
67.8029 0.0470054 0
67.7365 0.3372 0
67.9771 0.110303 0
67.9583 0.779099 0
67.9024 0.0524351 0
67.8617 0.392969 0
68.0266 0.245056 0
68.3363 0.00577915 0
68.3539 -0.000613117 0
68.3761 -0.0192834 0
68.3797 -0.00581587 0
68.4094 -0.00216918 0
68.436 -0.0207088 0
68.4382 -0.0242649 0
68.4441 -0.0128005 0
68.4664 -0.00365465 0
68.4845 -0.0327799 0
68.4828 -0.0252429 0
68.5004 -0.00822042 0
68.5256 -0.0393193 0
68.5198 -0.0416232 0
68.5183 -0.0301135 0
68.5247 -0.01229 0
68.5344 -0.0489013 0
68.5254 -0.0416843 0
68.5208 -0.0176142 0
68.5433 -0.0648176 0
68.5286 -0.063346 0
68.5156 -0.0464858 0
68.5158 -0.0136232 0
68.5315 -0.0803749 0
68.5009 -0.0677889 0
68.5041 -0.0163117 0
68.5211 -0.102511 0
68.5065 -0.108437 0
68.497 -0.0865899 0
68.4807 -0.0180206 0
68.4822 -0.115562 0
68.4679 -0.0888871 0
68.4427 -0.0183301 0
68.4576 -0.125322 0
68.4458 -0.106226 0
68.4519 -0.137078 0
68.4006 -0.0188364 0
68.4062 -0.107769 0
68.4089 -0.0663424 0
68.3655 -0.0240105 0
68.3849 -0.145804 0
68.3589 -0.111867 0
68.3691 -0.122514 0
68.3432 -0.0207078 0
68.3351 -0.0651686 0
68.3372 -0.140346 0
68.3364 -0.076241 0
68.3257 -0.111417 0
68.3548 -0.149829 0
68.3599 -0.171001 0
68.3351 -0.10785 0
68.3613 -0.13734 0
68.3338 -0.13497 0
68.3531 -0.166364 0
68.3506 -0.121043 0
68.3632 -0.120057 0
68.3659 -0.166374 0
68.3988 -0.140846 0
68.3607 -0.119269 0
68.3904 -0.16407 0
68.4141 -0.172826 0
68.4122 -0.123508 0
68.4562 -0.140902 0
68.4166 -0.139716 0
68.4628 -0.042595 0
68.4616 -0.155227 0
68.5091 -0.146208 0
68.4838 -0.161991 0
68.5082 -0.0429688 0
68.5141 -0.165473 0
68.5528 -0.185232 0
68.5886 -0.102321 0
68.5866 -0.108239 0
68.5492 -0.152529 0
68.6256 -0.19213 0
68.625 -0.0792298 0
68.702 -0.172758 0
68.6716 -0.112166 0
68.7557 -0.0062492 0
68.7035 -0.19338 0
68.7407 -0.221099 0
68.8245 -0.197 0
68.8784 -0.154381 0
68.7807 -0.121343 0
68.8328 -0.22542 0
68.9398 -0.157624 0
68.9034 -0.246201 0
68.8825 -0.0907505 0
68.937 -0.219715 0
69.0062 -0.0883723 0
68.9724 -0.254295 0
69.0237 -0.303429 0
69.1469 -0.179722 0
69.0946 -0.257988 0
69.0649 -0.121735 0
69.1753 -0.331638 0
69.0966 -0.0947815 0
69.1173 -0.333363 0
69.261 -0.378771 0
69.3199 -0.26601 0
69.349 -0.33049 0
69.269 -0.31687 0
69.2966 -0.346632 0
69.2556 -0.150592 0
69.3786 -0.399906 0
69.4089 -0.438133 0
69.4689 -0.284503 0
69.3537 -0.229411 0
69.3961 -0.376329 0
69.4401 -0.439759 0
69.3764 -0.0868294 0
69.5318 -0.464361 0
69.5378 -0.512049 0
69.5354 -0.305002 0
69.4738 -0.273393 0
69.5347 -0.439273 0
69.5633 -0.493475 0
69.4402 -0.0955185 0
69.577 -0.563359 0
69.6044 -0.577441 0
69.5515 -0.384688 0
69.5889 -0.458077 0
69.5355 -0.374831 0
69.6008 -0.574232 0
69.4093 -0.151182 0
69.5899 -0.540499 0
69.5817 -0.496283 0
69.3881 -0.139591 0
69.5573 -0.520678 0
69.5067 -0.451927 0
69.4548 -0.294639 0
69.2756 -0.185494 0
69.5931 -0.544053 0
69.6027 -0.569198 0
69.2579 -0.096267 0
69.5207 -0.487551 0
69.4722 -0.461805 0
69.4189 -0.350679 0
69.3198 -0.200074 0
69.2948 -0.236635 0
69.5388 -0.51031 0
69.2126 -0.146353 0
69.4562 -0.43612 0
69.4254 -0.374017 0
69.4738 -0.424938 0
69.1824 -0.00899279 0
69.4591 -0.376691 0
69.3492 -0.312874 0
69.3518 -0.232539 0
69.4068 -0.247953 0
69.5009 -0.378198 0
69.4994 -0.365879 0
69.2566 -0.0883145 0
69.5103 -0.334966 0
69.5577 -0.359929 0
69.544 -0.359525 0
69.7549 -0.0909142 0
69.5216 -0.289723 0
69.7473 -0.380827 0
69.8704 -0.339633 0
69.7458 -0.28537 0
69.8181 -0.423082 0
69.8035 -0.401045 0
69.7063 -0.0766716 0
69.9802 -0.474939 0
70.038 -0.463822 0
70.8482 -0.0954481 0
70.2521 -0.574677 0
70.0024 -0.353569 0
70.6921 -0.426621 0
70.7907 -0.607532 0
70.4459 -0.563614 0
70.3899 -0.638677 0
70.9829 -0.333107 0
70.8155 -0.733275 0
70.6714 -0.800444 0
71.1491 -0.942464 0
71.705 0.00944705 0
71.2474 -0.840539 0
71.1988 -1.03719 0
71.353 -0.288509 0
71.3306 -1.12444 0
71.9698 -0.716914 0
71.4511 -1.19101 0
72.6239 -0.455496 0
71.9519 -1.17643 0
71.8055 -1.34971 0
72.4056 -0.259259 0
72.1487 -1.46533 0
72.6774 -1.58925 0
72.5577 -1.33113 0
72.89 -0.841471 0
72.694 -1.86238 0
73.3691 -0.802324 0
74.0298 -0.14345 0
72.7105 -1.47103 0
72.9893 -1.90257 0
73.2322 -2.07901 0
73.9989 -0.744807 0
73.6976 -1.89296 0
74.0205 -2.10958 0
74.3923 -0.265266 0
74.4094 -2.14766 0
74.105 -2.33242 0
74.1449 -1.77102 0
74.6347 -0.923281 0
74.7927 -1.10428 0
74.4842 -2.44255 0
75.287 -0.0120561 0
74.7264 -2.61979 0
75.0388 -2.50909 0
74.922 -2.64697 0
75.6932 -0.747625 0
75.4101 -2.24606 0
75.8 -2.3087 0
75.8954 -0.0145504 0
75.9257 -2.6918 0
76.4245 -2.40216 0
75.9278 -1.74769 0
75.9473 -0.882006 0
76.2821 -2.62533 0
76.1967 -1.06728 0
76.4196 -0.131398 0
76.3736 -1.96001 0
76.7361 -2.43772 0
77.0472 -2.33 0
76.5932 -0.493976 0
77.2321 -1.84385 0
77.192 -2.18648 0
76.6797 -0.216685 0
77.3846 -2.18577 0
77.6751 -1.98302 0
77.53 -1.2433 0
76.7222 -0.0112281 0
77.9212 -1.68775 0
77.4125 -0.588995 0
77.6953 -0.554602 0
77.8872 -1.48827 0
77.7374 -1.10988 0
78.3775 -1.20823 0
76.9518 -0.129583 0
78.3087 -1.35051 0
78.1264 -0.685646 0
78.5518 -0.671976 0
76.8159 -0.0514415 0
78.6351 -0.0103138 0
78.4963 0.18902 0
76.1837 0.0647058 0
78.766 -0.332151 0
78.8406 0.106513 0
77.1294 0.462631 0
76.809 0.131151 0
78.0016 0.028382 0
78.8199 0.567286 0
76.3755 0.128062 0
78.5183 1.254 0
78.7454 0.734276 0
78.7534 0.91634 0
75.9222 0.660148 0
77.6972 1.38257 0
78.5031 1.54294 0
75.901 0.102994 0
78.3527 1.93518 0
78.3038 1.84773 0
77.5719 2.96135 0
74.4277 0.175477 0
78.2616 2.75264 0
76.9114 1.82747 0
75.5916 0.755873 0
75.4082 1.56129 0
78.119 3.056 0
77.4763 3.43232 0
74.815 0.29795 0
77.3293 3.97979 0
68.1886 -0.00605823 0
68.2028 0.000332799 0
68.2242 0.0184631 0
68.2282 0.00542245 0
68.258 0.00232284 0
68.2864 0.0213659 0
68.288 0.0227469 0
68.2964 0.0115066 0
68.3185 0.00410383 0
68.3372 0.0329371 0
68.3352 0.023406 0
68.3515 0.00834297 0
68.3785 0.0406014 0
68.3718 0.0427906 0
68.3701 0.0316891 0
68.3784 0.0124629 0
68.3904 0.0537179 0
68.3825 0.0459619 0
68.3803 0.0180607 0
68.4056 0.068258 0
68.392 0.0680034 0
68.4108 0.0910938 0
68.3796 0.0488192 0
68.4028 0.0637092 0
68.4073 0.104922 0
68.3713 0.07481 0
68.3883 0.115369 0
68.3799 0.0939441 0
68.3865 0.124065 0
68.3754 0.0647018 0
68.3575 0.0984626 0
68.3769 0.140845 0
68.3623 0.0638429 0
68.3626 0.1568 0
68.3462 0.155681 0
68.3468 0.116729 0
68.3462 0.0796837 0
68.3237 0.12525 0
68.3234 0.119178 0
68.3308 0.0781763 0
68.3227 0.196675 0
68.2858 0.0863235 0
68.3116 0.132242 0
68.3147 0.100841 0
68.2934 0.169594 0
68.3336 0.181736 0
68.3222 0.095806 0
68.3144 0.162051 0
68.3536 0.185618 0
68.3435 0.202646 0
68.3602 0.102294 0
68.3483 0.134257 0
68.3893 0.172597 0
68.4214 0.233557 0
68.4064 0.110922 0
68.4347 0.179019 0
68.4619 0.228199 0
68.458 0.121644 0
68.4157 0.16011 0
68.5033 0.234017 0
68.4994 0.222484 0
68.5052 0.13134 0
68.5533 0.0899855 0
68.5742 0.18597 0
68.4303 0.0688799 0
68.6123 0.214874 0
68.7095 0.237462 0
68.6607 0.20429 0
68.6224 0.124096 0
68.7394 0.235282 0
68.7613 0.205392 0
68.8083 0.0929818 0
68.7081 0.194445 0
68.8156 0.205071 0
68.8587 0.22445 0
68.7421 0.0592663 0
68.8327 0.161311 0
68.9503 0.24416 0
68.8649 0.129962 0
68.9773 0.212813 0
69.0446 0.238353 0
68.9919 0.181688 0
69.0462 0.0710706 0
69.0692 0.208844 0
69.1134 0.237657 0
69.086 0.0640823 0
69.1542 0.249614 0
69.0881 0.186346 0
69.2072 0.202266 0
69.1262 0.145258 0
69.222 0.259804 0
69.3198 0.293471 0
69.2555 0.0749915 0
69.251 0.207066 0
69.3657 0.303854 0
69.322 0.219035 0
69.2349 0.0949592 0
69.3835 0.278622 0
69.402 0.286786 0
69.3375 0.0634182 0
69.3982 0.120103 0
69.4294 0.246409 0
69.4547 0.317405 0
69.3783 0.173277 0
69.4711 0.29966 0
69.4816 0.317471 0
69.4392 0.115883 0
69.46 0.195489 0
69.4977 0.341072 0
69.4831 0.289601 0
69.3947 0.0932783 0
69.4881 0.326746 0
69.4792 0.351695 0
69.415 0.142368 0
69.4891 0.294519 0
69.4866 0.394739 0
69.452 0.316329 0
69.4043 0.102181 0
69.4657 0.383814 0
69.4206 0.435303 0
69.3586 0.135121 0
69.367 0.367349 0
69.3237 0.183912 0
69.3228 0.363567 0
69.3507 0.220437 0
69.3849 0.46389 0
69.3287 0.458886 0
69.2014 0.121211 0
69.2953 0.439516 0
69.2829 0.501509 0
69.0634 0.137796 0
69.2779 0.372928 0
69.1709 0.425762 0
69.2433 0.503796 0
69.1085 0.0719474 0
69.1735 0.463711 0
69.2314 0.576267 0
69.114 0.481485 0
69.021 0.158646 0
69.1269 0.497363 0
69.0533 0.198954 0
69.1455 0.431342 0
69.1841 0.552519 0
69.2749 0.616963 0
69.2646 0.621186 0
69.008 0.0259093 0
69.3778 0.702022 0
69.3817 0.683651 0
69.3689 0.602032 0
69.3241 0.288166 0
69.5151 0.292476 0
69.4191 0.667526 0
69.113 0.193215 0
69.6357 0.720133 0
69.5818 0.720827 0
69.6447 0.648912 0
69.4997 0.189559 0
69.782 0.704489 0
70.1095 0.892097 0
69.8801 0.324998 0
69.7495 0.335907 0
70.0376 0.729675 0
70.4283 0.897056 0
69.5431 0.20317 0
70.5247 0.956337 0
70.6435 0.89551 0
70.4036 0.161399 0
71.0481 1.02787 0
71.1396 0.974784 0
71.4226 0.850606 0
70.986 0.346315 0
70.8481 0.390301 0
71.1225 0.943943 0
70.5867 0.234766 0
71.5581 1.13478 0
71.7128 1.04773 0
71.7952 0.977381 0
71.3222 0.140976 0
72.174 1.11055 0
72.2273 1.14941 0
72.0017 0.638367 0
72.573 0.912517 0
72.1457 0.515396 0
72.3834 1.09858 0
71.8641 0.312095 0
72.7341 1.25646 0
72.7913 1.20985 0
72.0414 0.292101 0
72.9975 1.17079 0
73.3223 1.31507 0
73.164 1.30067 0
73.3083 0.327134 0
73.6974 1.38753 0
73.7602 1.49274 0
72.9676 0.900839 0
73.7773 1.19908 0
73.261 0.566738 0
74.065 1.60093 0
73.7665 0.200176 0
74.1438 1.60329 0
74.2005 1.587 0
73.3878 0.154511 0
74.1754 1.48919 0
74.5773 1.78839 0
74.7133 1.84184 0
74.5354 0.547425 0
74.8205 1.88222 0
74.9184 2.03381 0
74.1773 1.14209 0
75.2621 1.52432 0
74.8747 0.572019 0
75.1568 2.13314 0
75.0319 0.2192 0
75.3722 2.15176 0
75.5331 2.18386 0
74.6828 0.146954 0
75.5594 1.94942 0
75.9876 2.35022 0
76.3009 2.32864 0
75.4672 0.517716 0
76.1336 2.24134 0
76.5669 2.48599 0
75.769 1.7283 0
76.8625 1.70291 0
75.7741 0.450483 0
76.3856 2.23716 0
76.0407 0.194396 0
77.056 2.5023 0
77.1998 2.29905 0
75.7653 0.149478 0
77.1768 1.83615 0
77.547 2.06864 0
77.9215 1.95839 0
76.6051 0.22874 0
78.1393 1.80278 0
78.2602 1.60481 0
76.9006 0.365759 0
78.3386 1.68175 0
77.9033 0.802097 0
76.7629 0.712911 0
76.4833 0.529867 0
78.5733 1.3948 0
78.537 0.797308 0
78.9433 0.727656 0
76.5193 0.015729 0
78.527 0.277612 0
79.0336 -0.0316425 0
76.7224 0.0854656 0
78.3116 0.251448 0
79.0892 -0.591636 0
78.0644 -0.308634 0
76.9351 0.0511789 0
79.0079 -0.908436 0
78.934 -1.23558 0
77.7646 0.203142 0
77.7188 -1.46064 0
76.3362 -1.28067 0
78.8082 -1.2949 0
76.3224 -0.0987089 0
78.725 -2.09775 0
76.817 4.36304 0
77.2446 3.87657 0
73.5414 1.00452 0
76.7796 4.29528 0
75.2912 3.95919 0
76.1948 4.77402 0
74.0046 0.369929 0
75.6099 4.90569 0
74.884 4.86773 0
72.985 0.52523 0
74.8461 5.19787 0
78.6844 -2.42564 0
76.4455 -0.0455628 0
78.5239 -2.69632 0
77.7266 -3.01342 0
77.2063 -2.49148 0
76.0042 -0.11373 0
77.8404 -3.50644 0
74.0937 4.77764 0
77.2723 -4.39099 0
75.9547 -0.647887 0
77.0932 -4.20784 0
76.3409 -4.92135 0
72.0883 1.33423 0
76.1086 -4.78369 0
77.0532 -2.31787 0
76.627 -4.26068 0
75.2577 -2.97156 0
74.5121 -0.428378 0
75.9579 -4.31473 0
75.4138 -4.59603 0
73.6466 5.05605 0
75.4341 -4.66552 0
75.1197 -0.209572 0
74.724 -4.89488 0
74.2332 -5.39714 0
74.0243 -0.273565 0
73.474 -5.52189 0
73.889 -3.88148 0
72.2615 -0.350382 0
72.7963 -5.62547 0
72.7374 -2.97801 0
73.9879 -2.18352 0
73.2626 -4.7617 0
72.4013 -5.07263 0
74.2468 2.43929 0
71.282 0.277893 0
73.7512 1.60262 0
72.7539 -0.0100192 0
72.0599 -5.49225 0
73.4619 4.77509 0
71.0858 0.209206 0
72.8994 4.02875 0
71.4419 -5.47584 0
72.3797 -1.00503 0
70.7858 -3.90777 0
72.9304 5.50058 0
70.188 1.17969 0
72.9059 5.42594 0
71.2917 4.64895 0
70.3326 0.237582 0
71.8975 4.84329 0
71.2009 -4.04 0
71.951 -0.312304 0
70.8268 -5.61434 0
70.8765 -5.42938 0
72.1206 5.20702 0
70.7385 5.0902 0
69.7477 0.00536071 0
71.5024 5.20764 0
69.852 3.16397 0
69.8934 1.35844 0
70.1417 -5.58495 0
70.1555 -0.660201 0
70.4036 -5.48088 0
69.8326 5.3719 0
69.6759 -5.14494 0
69.4121 -0.63148 0
69.4609 -2.10527 0
68.8905 -4.94814 0
70.6541 -2.52943 0
68.7276 -4.74856 0
68.97 -0.177204 0
68.0797 -4.5917 0
69.0495 1.75545 0
69.2108 0.257865 0
69.4971 4.51061 0
68.6965 0.0678436 0
69.3479 5.31021 0
69.2111 5.01781 0
68.4312 0.13334 0
68.6253 4.37814 0
68.2601 0.10047 0
68.946 -4.23323 0
68.9887 -0.347178 0
69.8215 3.80692 0
67.8577 0.703586 0
68.4092 4.13853 0
68.0035 -4.60121 0
69.0786 -0.160607 0
66.8283 -3.89563 0
67.8329 -0.678072 0
67.3022 -3.86796 0
68.5742 1.72708 0
67.7897 0.262819 0
69.3747 -3.37426 0
67.7857 -0.264358 0
66.8899 -3.65796 0
67.9263 3.74207 0
67.8029 -2.82786 0
67.805 -0.506527 0
67.0602 -3.12366 0
68.2982 2.09168 0
66.8999 1.37816 0
67.5365 3.23799 0
67.8286 -0.684618 0
67.0233 -3.45808 0
67.7943 0.619638 0
67.5479 4.37762 0
67.979 -1.72424 0
67.7917 -0.186371 0
66.7739 -3.15337 0
67.4298 3.96926 0
67.844 0.674571 0
67.2178 3.11486 0
67.0889 3.06845 0
67.8163 0.574598 0
66.5583 2.75681 0
66.2112 -2.8021 0
67.7919 -0.523725 0
65.9632 -2.81858 0
67.3905 -1.40125 0
67.8179 -0.391743 0
65.6419 -1.93516 0
66.5612 3.44684 0
67.8195 0.589115 0
67.302 2.20848 0
65.9837 -1.7151 0
67.7977 -0.397988 0
65.5132 -1.60626 0
65.7338 2.53622 0
67.7974 0.350675 0
65.9706 2.41349 0
66.1646 1.96199 0
67.8082 0.069571 0
65.6432 2.10116 0
66.3111 -1.02871 0
67.8045 -0.468674 0
65.8131 -0.916837 0
65.0435 -0.572332 0
67.6319 -0.656239 0
65.212 -0.48475 0
67.4753 0.718958 0
67.8028 0.119481 0
67.0373 1.6626 0
65.5674 1.66902 0
67.7812 0.0704641 0
65.1467 1.092 0
67.7131 -0.146678 0
67.7791 -0.213804 0
65.0989 -0.138159 0
65.4104 -0.0238112 0
67.8283 -0.0985644 0
66.8916 0.219243 0
65.681 0.379554 0
67.8087 -0.106298 0
67.965 -3.7684 0
67.8396 -0.636745 0
67.7586 0.290675 0
68.7669 4.52652 0
69.2933 -5.13769 0
70.9847 -0.575236 0
69.6464 0.564029 0
71.2951 5.50552 0
67.7863 0.437542 0
66.2318 3.30501 0
65.7195 -1.93335 0
67.7167 -0.389194 0
67.8352 -0.694007 0
68.0393 -2.42075 0
67.8984 0.648149 0
67.8969 0.405539 0
67.8303 0.0103626 0
65.4967 1.45107 0
68.6659 0.314083 0
68.2208 1.15537 0
68.348 -1.0013 0
69.4486 -0.414097 0
74.034 -0.628332 0
73.8532 -5.37398 0
75.1136 4.88767 0
73.7132 0.219732 0
67.9737 1.20122 0
69.8121 5.1606 0
68.9569 -4.69397 0
68.8712 -1.52585 0
67.5061 -1.06757 0
66.1763 -0.141559 0
67.4836 3.90371 0
68.1177 1.38905 0
68.0073 -1.28814 0
66.2771 -3.17174 0
78.3445 -3.14663 0
75.8319 -0.299956 0
75.5377 0.347706 0
78.2837 2.46869 0
67.8827 -0.644404 0
67.7985 -0.111922 0
67.7598 0.327492 0
68.4169 0.556916 0
71.8647 0.357324 0
71.7741 2.39653 0
70.3409 -1.16703 0
72.892 -0.965158 0
71.0248 2.99568 0
73.2549 5.12754 0
72.4791 -5.59305 0
71.4623 -1.10871 0
74.564 0.82215 0
75.4074 2.87009 0
74.4204 -1.5153 0
75.1476 -0.00103419 0
76.7913 0.130363 0
79.0094 0.472881 0
78.5801 -0.678921 0
76.4825 0.000385983 0
76.0661 0.0141837 0
77.2687 2.37366 0
77.6493 -1.8453 0
76.754 -0.242823 0
68.573 -1.05207 0
68.0336 -0.396501 0
68.1177 0.890936 0
68.614 0.672665 0
68.0505 0.860787 0
67.8049 0.51065 0
67.7736 -0.258829 0
67.9989 -0.76411 0
76.4063 0.377164 0
77.3162 0.720758 0
76.6654 -0.323595 0
76.529 -0.00659551 0
66.9235 -0.719582 0
67.8472 -0.239298 0
67.7079 -0.308156 0
67.8187 -0.574559 0
67.8061 0.401643 0
67.8923 0.713233 0
75.6502 2.22598 0
75.2578 0.367763 0
76.1263 -0.0175398 0
75.8562 -2.55828 0
70.6562 -0.00295646 0
70.1971 -1.70417 0
70.9554 1.02675 0
69.7944 0.248651 0
68.2557 2.63929 0
68.1288 4.81746 0
67.9553 -4.17924 0
68.4224 -2.18167 0
68.4966 -1.4934 0
67.8551 -1.62845 0
68.3747 2.97793 0
68.2539 1.60271 0
76.841 -0.328229 0
76.8085 -0.110339 0
76.549 0.13812 0
77.1139 1.42609 0
69.6926 -3.44839 0
70.4279 -3.30784 0
70.0783 2.82957 0
70.7401 5.50432 0
69.0536 -2.53284 0
69.6514 -1.38505 0
69.5806 1.84466 0
68.739 1.03892 0
74.5055 1.81765 0
74.2227 0.246622 0
74.9467 -0.0188691 0
73.7693 -2.23907 0
67.7464 0.733352 0
67.8053 0.0502529 0
76.19 -0.310121 0
76.9101 -1.3217 0
76.2447 0.943672 0
75.509 0.142772 0
68.3378 -0.713188 0
68.1226 -0.95754 0
68.7006 1.18643 0
67.9864 0.516121 0
67.8185 -0.331885 0
67.9228 -0.519902 0
67.8431 0.467838 0
67.781 0.314337 0
65.7643 1.20044 0
67.5926 1.1159 0
74.9879 -1.72093 0
77.388 -3.95188 0
77.7113 3.38424 0
74.7023 1.15623 0
67.5225 -1.62093 0
66.1955 -1.96224 0
72.7099 0.24259 0
72.9538 1.23287 0
70.6887 0.0990772 0
72.0799 1.16305 0
72.4654 -1.52842 0
72.7754 -0.234258 0
70.8651 -0.832315 0
71.2799 0.00262392 0
75.2244 -0.596662 0
75.0917 -1.53321 0
74.8097 0.8045 0
74.5538 0.00697433 0
67.8521 0.321999 0
67.7977 0.456749 0
67.2354 0.346765 0
65.9222 0.591155 0
67.815 -0.292802 0
67.7981 -0.297333 0
67.6956 0.207185 0
67.7252 -0.528845 0
78.9593 -0.950244 0
76.6849 -0.672213 0
77.3627 0.93078 0
78.7555 0.269628 0
67.8289 -0.0663747 0
67.8985 -0.300467 0
67.7797 0.114279 0
67.9617 0.179096 0
73.7341 -0.431404 0
73.461 -1.07614 0
73.8576 0.591772 0
73.0527 0.152527 0
70.0337 0.217711 0
70.3738 0.798548 0
70.055 -0.513817 0
70.0756 -0.134569 0
68.1189 -0.628334 0
68.9238 -1.42953 0
68.4718 1.13971 0
68.1412 0.924288 0
68.9527 1.84343 0
67.8897 1.35842 0
68.1182 -1.41349 0
68.6314 -1.8715 0
77.1931 0.456535 0
77.4897 2.01164 0
78.0092 -1.51142 0
77.7219 -0.351604 0
67.8728 -0.784847 0
67.9319 -0.949449 0
67.9031 0.779274 0
67.7517 0.95578 0
69.9074 0.854135 0
69.3546 0.271259 0
69.4141 -0.0934795 0
69.6455 -0.379041 0
73.5829 2.41438 0
75.1539 4.25839 0
74.6432 -5.33332 0
74.3613 -1.84643 0
66.5813 -2.32208 0
67.9799 -2.34501 0
73.3034 -1.74867 0
73.7583 -0.605609 0
72.449 0.27783 0
74.8866 1.64805 0
66.4151 3.14256 0
67.4847 1.88968 0
72.0068 -0.0726781 0
72.0213 -0.908837 0
72.3604 0.536227 0
72.2163 0.171397 0
76.0655 -0.142705 0
76.0271 -0.681291 0
76.3282 0.951464 0
75.6396 0.137078 0
71.9248 0.813902 0
70.4201 0.205188 0
71.3725 -0.219102 0
72.0211 -1.81792 0
76.0606 1.13287 0
75.8292 2.10465 0
76.7582 -2.37136 0
77.1095 -0.898875 0
71.2873 -2.31381 0
72.0461 -1.0292 0
71.4402 1.55472 0
73.5953 3.56541 0
69.1835 0.544731 0
69.0432 0.110318 0
69.2654 -0.0968858 0
69.4453 -0.406078 0
70.3592 -0.211715 0
70.9234 0.011006 0
71.15 0.156675 0
70.4092 0.626052 0
69.1608 0.308357 0
69.0221 0.815702 0
69.2508 -0.697544 0
69.887 -0.217732 0
70.625 1.65608 0
69.2806 1.19229 0
68.9477 -1.81766 0
68.4093 -1.9739 0
76.8321 0.0936263 0
76.7062 0.0443301 0
76.7432 0.0316252 0
77.2795 -0.129947 0
69.534 2.31882 0
69.7039 1.53336 0
68.6555 -0.576248 0
68.4941 -0.22431 0
68.3902 0.197359 0
69.0016 0.530201 0
67.3131 -0.6415 0
67.8122 -0.941408 0
78.6589 -1.83829 0
76.8269 -0.864442 0
76.42 2.00469 0
78.4798 1.90977 0
67.8735 -0.684977 0
67.8431 -0.298747 0
67.7337 0.395364 0
67.897 0.697535 0
67.9303 0.0684913 0
67.9622 0.42093 0
68.0086 -0.234388 0
68.0841 -0.0117643 0
66.6956 -0.18833 0
65.0856 0.130966 0
73.5327 1.80689 0
76.3818 1.54242 0
75.552 -1.31416 0
76.0067 -2.9083 0
67.9227 1.51114 0
67.6684 0.859233 0
67.8016 -0.0448704 0
67.7662 -0.0370911 0
70.389 4.35706 0
68.5608 2.61427 0
69.755 -2.68269 0
69.3442 -5.33933 0
67.6897 0.564752 0
67.821 0.488808 0
74.7768 1.03462 0
74.7571 1.93769 0
74.5941 -2.38886 0
75.1764 -0.520052 0
69.445 -0.109656 0
69.8991 -0.0749913 0
70.0444 0.108018 0
69.6184 0.637873 0
78.5827 -0.728532 0
77.8897 0.251202 0
77.6415 0.740346 0
78.7089 1.08878 0
67.7316 0.0848102 0
67.5088 -1.27208 0
68.0684 1.00403 0
68.234 1.40525 0
68.3705 -1.5624 0
67.9678 -0.689536 0
67.8161 0.131232 0
67.769 0.28572 0
70.9105 -3.59228 0
69.6577 -1.9936 0
69.326 -1.27071 0
70.0941 -0.657756 0
76.9445 -0.209855 0