# vtk DataFile Version 3.0
Unstructured Grid for Triangles
ASCII
DATASET UNSTRUCTURED_GRID
POINTS 29612 DOUBLE
-0.000272397 1.23686e-05 0
-0.000295789 9.5838e-06 0
-0.000277865 -3.1235e-06 0
0.002024 0.0005 0
0.00203975 0.00049875 0
0.00205 0.0005 0
0.00203975 -0.00049875 0
0.002024 -0.0005 0
0.00205 -0.0005 0
0.0020295 0.0004975 0
0.0020295 -0.0004975 0
0.00201925 0.00049625 0
0.00201925 -0.00049625 0
-0.000529747 -0.000479887 0
-0.00055 -0.0005 0
-0.000524 -0.0005 0
-0.000505983 -0.000484325 0
-0.000498 -0.0005 0
-0.000472 -0.0005 0
-0.000483864 -0.000487761 0
-0.000446 -0.0005 0
-0.000459 -0.000484239 0
-0.000429453 -0.000424878 0
-0.000447486 -0.000420717 0
-0.000441829 -0.000436609 0
-0.000512578 -0.000462101 0
-0.000493078 -0.000453594 0
-0.00050706 -0.000439006 0
-0.000419243 -0.000477545 0
-0.000440307 -0.000471837 0
-0.00043691 -0.000486724 0
-0.000516129 -0.000420948 0
-0.000495355 -0.000415432 0
-0.000511646 -0.00040128 0
-0.000394697 -0.000481197 0
-0.000406302 -0.000455143 0
-0.000537257 -0.000388197 0
-0.000531099 -0.000407297 0
-0.000523982 -0.000388328 0
-0.000370063 -0.000472956 0
-0.000368 -0.0005 0
-0.00035308 -0.000485302 0
-0.0005072 -0.00037867 0
-0.000485506 -0.000383975 0
-0.000490949 -0.000359622 0
-0.000337127 -0.000484331 0
-0.000316 -0.0005 0
-0.000326495 -0.00047415 0
-0.00055 -0.00035 0
-0.000531201 -0.000370361 0
-0.000528367 -0.000346817 0
-0.000363898 -0.000448809 0
-0.000383315 -0.000460336 0
-3.26269e-05 -0.000415503 0
-5.99662e-05 -0.000409556 0
-5.46944e-05 -0.000429488 0
-0.000529747 0.000479887 0
-0.00055 0.0005 0
-0.00055 0.000475 0
-0.00055 0.00045 0
-0.000534834 0.000429171 0
-0.000526943 0.000442611 0
-0.000534026 0.000460176 0
-0.000531099 0.000407297 0
-0.000511672 0.000401178 0
-0.000516129 0.000420948 0
-0.000524 0.0005 0
-0.000505983 0.000484325 0
-0.000531201 0.000370361 0
-0.0005072 0.00037867 0
-0.000523982 0.000388328 0
-0.00048341 0.000469132 0
-0.000483679 0.000487539 0
-0.000528367 0.000346817 0
-0.00055 0.000325 0
-0.000525657 0.000328474 0
-0.000498 0.0005 0
-0.000530382 0.0003125 0
-0.000419243 0.000477545 0
-0.000440015 0.00047335 0
-0.000425917 0.000463678 0
-0.000435138 0.000262661 0
-0.000414982 0.000274462 0
-0.000435654 0.000285217 0
-0.000459 0.000484239 0
-0.000436852 0.000487027 0
-0.000446 0.0005 0
-0.000533308 0.000292503 0
-0.00055 0.000275 0
-0.000523377 0.000276953 0
-0.000425282 0.000446352 0
-0.000409368 0.000435728 0
-0.000406302 0.000455143 0
0.002009 0.000495 0
0.001998 0.0005 0
0.00199875 0.00049375 0
0.0019885 0.0004925 0
0.001972 0.0005 0
0.00197825 0.00049125 0
0.001968 0.00049 0
0.00195775 0.00048875 0
0.001946 0.0005 0
0.0019475 0.0004875 0
0.00193725 0.00048625 0
0.00192 0.0005 0
0.001927 0.000485 0
0.00191675 0.00048375 0
0.0019065 0.0004825 0
0.001894 0.0005 0
0.00189625 0.00048125 0
0.001886 0.00048 0
0.001868 0.0005 0
0.00187575 0.00047875 0
0.0018655 0.0004775 0
0.00185515 0.00048575 0
0.001842 0.0005 0
0.001845 0.000475 0
0.00185525 0.00047625 0
0.00182564 0.0004829 0
0.001816 0.0005 0
0.0018245 0.0004725 0
0.00183475 0.00047375 0
0.00181425 0.00047125 0
0.00180295 0.000482657 0
0.00179 0.0005 0
0.00179375 0.00046875 0
0.001804 0.00047 0
0.00178168 0.000480619 0
0.001764 0.0005 0
0.00177325 0.00046625 0
0.0017835 0.0004675 0
0.00176428 0.000476631 0
0.001763 0.000465 0
0.001738 0.0005 0
0.001751 0.000484164 0
0.00175275 0.00046375 0
0.00174025 0.000475632 0
0.001712 0.0005 0
0.00172615 0.000478449 0
0.001722 0.00046 0
0.00173225 0.00046125 0
0.0017015 0.0004575 0
0.00171243 0.00047381 0
0.00169554 0.000479999 0
0.001686 0.0005 0
0.00167507 0.000479751 0
0.00168498 0.000464861 0
0.00166 0.0005 0
0.0016558 0.000471459 0
0.00167135 0.000462887 0
0.001681 0.000455 0
0.0016605 0.0004525 0
0.00167075 0.00045375 0
0.00164059 0.000461599 0
0.0016394 0.000479551 0
0.00162881 0.00046615 0
0.00162975 0.00044875 0
0.00165025 0.00045125 0
0.00164 0.00045 0
0.00161754 0.000458641 0
0.00161722 0.000478101 0
0.00159956 0.000458294 0
0.00160925 0.00044625 0
0.0016195 0.0004475 0
0.00157667 0.000460322 0
0.00158875 0.00044375 0
0.00159194 0.000480155 0
0.001599 0.000445 0
0.0015785 0.0004425 0
0.00155808 0.000456757 0
0.00155647 0.000476701 0
0.00154059 0.000466642 0
0.00153756 0.000450083 0
0.00154839 0.000450446 0
0.00156825 0.00044125 0
0.00151954 0.000480508 0
0.00154052 0.00048477 0
0.00153 0.0005 0
0.00154775 0.00043875 0
0.00152142 0.000456625 0
0.00152821 0.000445753 0
0.0015375 0.0004375 0
0.001504 0.0005 0
0.00149644 0.000485168 0
0.00151787 0.000443178 0
0.00152725 0.00043625 0
0.00150675 0.00043375 0
0.001517 0.000435 0
0.00148119 0.000450887 0
0.00148072 0.000475756 0
0.00146584 0.000463516 0
0.00150008 0.00046396 0
0.00149351 0.00044543 0
0.0015061 0.000446252 0
0.001476 0.00043 0
0.00148625 0.00043125 0
0.00146492 0.000482975 0
0.00144888 0.000473562 0
0.00146676 0.000444259 0
0.00145255 0.000453656 0
0.00145652 0.000438669 0
0.00141401 0.000479821 0
0.001426 0.0005 0
0.0014 0.0005 0
0.00144374 0.000438862 0
0.0014555 0.0004275 0
0.001435 0.000425 0
0.00144525 0.00042625 0
0.00142746 0.000438121 0
0.00141288 0.000443191 0
0.00141707 0.000432778 0
0.0013921 0.000438992 0
0.00140355 0.00045932 0
0.00138302 0.00045922 0
0.00142912 0.000458869 0
0.00140592 0.000430037 0
0.0014145 0.0004225 0
0.00136458 0.00045869 0
0.00137106 0.00044063 0
0.001394 0.00042 0
0.00138259 0.000428915 0
0.00137484 0.000477094 0
0.00139166 0.000478902 0
0.0013586 0.000478984 0
0.00133449 0.000478649 0
0.00134717 0.000461848 0
0.00137256 0.000425134 0
0.00135323 0.000424541 0
0.00136325 0.00041625 0
0.00136122 0.00042876 0
0.00131206 0.000447284 0
0.00133168 0.000456738 0
0.00131773 0.000465243 0
0.00134756 0.000440343 0
0.00132747 0.000436463 0
0.00133483 0.000426786 0
0.00131081 0.00041867 0
0.00132382 0.000422815 0
0.00131507 0.00043122 0
0.00131059 0.000480123 0
0.0013325 0.0004125 0
0.0012915 0.0004075 0
0.0012982 0.000418199 0
0.00128915 0.000426216 0
0.00126366 0.000447574 0
0.00127331 0.000430908 0
0.00128781 0.000444872 0
0.00125336 0.000428376 0
0.00130218 0.000431077 0
0.00127894 0.000416344 0
0.00124774 0.000469608 0
0.00127668 0.000464148 0
0.00126591 0.00048331 0
0.00126722 0.000418415 0
0.00125768 0.000411931 0
0.00124326 0.000413546 0
0.0012505 0.0004025 0
0.00122408 0.000450118 0
0.00120276 0.000447432 0
0.0012139 0.000432235 0
0.00124336 0.000444132 0
0.00123056 0.000427595 0
0.00122977 0.000409049 0
0.0012185 0.000469217 0
0.00122676 0.000485947 0
0.00120525 0.000486094 0
0.00121479 0.000413153 0
0.00119547 0.000424221 0
0.00120249 0.000407448 0
0.00119925 0.00039625 0
0.00119346 0.000406114 0
0.00117479 0.000447279 0
0.00114726 0.000445259 0
0.0011571 0.000427814 0
0.00119443 0.000466611 0
0.00117447 0.000421596 0
0.00118421 0.00040752 0
0.00117409 0.000404437 0
0.00116775 0.000470073 0
0.001179 0.0004855 0
0.00115473 0.000484802 0
0.0011685 0.0003925 0
0.00117875 0.00039375 0
0.00115454 0.000400551 0
0.001148 0.00039 0
0.00115825 0.00039125 0
0.00111703 0.000423398 0
0.00113786 0.000426731 0
0.00112589 0.000443871 0
0.00113234 0.000406671 0
0.00114754 0.000413371 0
0.001106 0.000442326 0
0.00109703 0.000424261 0
0.0011275 0.0003875 0
0.00113775 0.00038875 0
0.00110211 0.000480875 0
0.00108244 0.000471951 0
0.00109312 0.000458413 0
0.00111755 0.000399116 0
0.0010944 0.000392972 0
0.00110415 0.000405876 0
0.00108839 0.000407536 0
0.00106472 0.000476905 0
0.00107274 0.000457868 0
0.00108011 0.000392415 0
0.00106885 0.000404365 0
0.00106625 0.000388708 0
0.00105286 0.000419254 0
0.00105055 0.000395469 0
0.00104215 0.000439764 0
0.00106346 0.000440629 0
0.00100945 0.000451249 0
0.00102825 0.00045614 0
0.00101189 0.000468452 0
0.00107625 0.00038125 0
0.00105575 0.00037875 0
0.001066 0.00038 0
0.00103352 0.000476905 0
0.00101803 0.00048465 0
0.00103685 0.000389398 0
0.0010245 0.00038825 0
0.00103525 0.00037625 0
0.00101092 0.000399779 0
0.00101267 0.000382619 0
0.00101382 0.00042025 0
0.00103187 0.000405286 0
0.00103359 0.000424605 0
0.000987383 0.00045447 0
0.000999411 0.000435161 0
0.0009744 0.000433145 0
0.0010045 0.0003725 0
0.00101475 0.00037375 0
0.000970845 0.000465215 0
0.000952614 0.000467664 0
0.000961768 0.000449944 0
0.00099729 0.000387704 0
0.000978901 0.00039598 0
0.000985823 0.000381492 0
0.000962289 0.000393709 0
0.000974259 0.000381279 0
0.00097375 0.00036875 0
0.000963045 0.000376631 0
0.000958 0.0005 0
0.000932 0.0005 0
0.000947542 0.00048457 0
0.000949675 0.000385245 0
0.000936214 0.000389472 0
0.000940006 0.000374906 0
0.000966411 0.000412573 0
0.000944241 0.000407079 0
0.000903569 0.000424993 0
0.000921701 0.000402409 0
0.000927439 0.000427744 0
0.000889795 0.000409067 0
0.000903071 0.00040248 0
0.000925447 0.000377721 0
0.00093275 0.00036375 0
0.000907708 0.000387127 0
0.000911303 0.000370839 0
0.000911933 0.000455145 0
0.000930678 0.000473279 0
0.000911886 0.000482603 0
0.000887724 0.000388076 0
0.000899595 0.000375116 0
0.000902 0.00036 0
0.000889241 0.00036954 0
0.000836977 0.000459472 0
0.000836223 0.000483578 0
0.000820467 0.000474142 0
0.000871227 0.000403557 0
0.000861 0.000355 0
0.000868368 0.000365714 0
0.00085484 0.00036588 0
0.000847735 0.000402845 0
0.000823121 0.000421599 0
0.000826582 0.000398147 0
0.000846943 0.00042454 0
0.000838832 0.000378613 0
0.000835569 0.000363808 0
0.000844098 0.00036291 0
0.00085075 0.00035375 0
0.000851465 0.000477164 0
0.00083025 0.00035125 0
0.000822824 0.000368659 0
0.00081446 0.000357362 0
0.000805884 0.000371794 0
0.000753471 0.000477524 0
0.000738313 0.000473927 0
0.000739102 0.000461526 0
0.00079826 0.000358588 0
0.000788607 0.000376287 0
0.000781733 0.000357987 0
0.000816783 0.000384471 0
0.000807975 0.000404095 0
0.000752138 0.000404775 0
0.000767682 0.000417043 0
0.000749617 0.000421803 0
0.000752903 0.000384008 0
0.000738293 0.000393136 0
0.000772614 0.000394048 0
0.00076863 0.000371878 0
0.000765995 0.000354121 0
0.000779 0.000345 0
0.00071811 0.000453059 0
0.000738069 0.000437967 0
0.000752085 0.000365972 0
0.000728123 0.000374583 0
0.000741845 0.000354664 0
[...]
CELL_DATA 58684
VECTORS velocity DOUBLE
64.8201 0.291501 0
66.5552 -0.000730147 0
66.4492 -0.00118108 0
66.5787 -0.0299535 0
66.4829 0.0393154 0
66.5633 -0.00144843 0
66.461 -0.00275425 0
67.8613 0.00251646 0
67.8943 -0.0397755 0
68.0728 0.0011036 0
68.191 0.000549367 0
68.2064 -0.257739 0
67.9691 -0.132812 0
68.2938 -0.0790887 0
67.9262 -0.239947 0
68.4043 -0.10328 0
67.8522 -0.212384 0
68.6021 -0.113937 0
67.9796 -0.353081 0
68.9289 -0.0986105 0
67.8527 -0.224459 0
68.5881 -0.261979 0
72.5374 -1.54473 0
67.8056 0.0268145 0
67.824 0.0994169 0
67.8028 0.0507034 0
67.9088 0.226683 0
67.8935 0.0382148 0
67.8753 0.289854 0
68.0687 0.0525594 0
67.8462 0.261535 0
68.0033 0.0426001 0
67.7951 0.261424 0
68.3337 0.0918529 0
67.9029 0.693285 0
68.2379 0.0494152 0
67.851 0.319635 0
68.3682 0.208853 0
66.6297 0.0444821 0
66.6533 0.00180535 0
66.6556 -0.0244535 0
66.6639 0.0301178 0
66.7497 0.00192129 0
66.7566 -0.0150944 0
66.7681 0.00169708 0
66.7962 0.0363013 0
66.8535 0.00872066 0
66.8533 0.00421851 0
66.8653 0.0325063 0
66.9436 0.00449092 0
66.9343 0.0117586 0
66.9541 0.0268203 0
66.973 0.0415126 0
67.0243 0.0124653 0
67.0276 0.0242683 0
67.0397 0.0325385 0
67.1017 0.00827943 0
67.0954 0.0344014 0
67.117 0.0377519 0
67.1373 0.0352746 0
67.1797 0.0127815 0
67.1641 0.0405384 0
67.2242 0.0314459 0
67.2579 0.0149669 0
67.2442 0.0422758 0
67.2626 0.0555083 0
67.294 0.0458706 0
67.3341 0.0153239 0
67.329 0.0559201 0
67.3594 0.0507571 0
67.4107 0.0171893 0
67.4018 0.0562738 0
67.427 0.0557945 0
67.4587 0.0491614 0
67.5186 0.0190657 0
67.532 0.0331628 0
67.559 0.0192429 0
67.6383 0.0229897 0
67.6373 0.0247428 0
67.7609 0.0295005 0
67.6642 0.0203363 0
67.8039 0.0190764 0
67.8703 -0.011479 0
67.806 0.00807765 0
68.0192 -0.0139787 0
67.9517 -0.00152119 0
67.9152 0.0071561 0
67.9869 -0.0164047 0
68.1828 -0.0109645 0
68.2358 -0.0114278 0
68.0964 -0.00302537 0
68.1849 -0.0334637 0
68.3387 -0.043186 0
68.3168 -0.0352558 0
68.3301 -0.0444823 0
68.5196 -0.0443749 0
68.4779 -0.0770248 0
68.4729 -0.0716844 0
68.6022 -0.104138 0
68.6943 -0.0926347 0
68.8749 -0.124718 0
68.665 -0.0798105 0
68.9554 -0.0516613 0
68.8436 -0.114155 0
69.0072 -0.112627 0
68.9362 -0.139005 0
69.133 -0.0517923 0
69.0155 -0.135154 0
69.1152 -0.168999 0
69.3464 -0.110874 0
69.3071 -0.115026 0
69.1872 -0.164466 0
69.3545 -0.206387 0
69.468 -0.100879 0
69.5709 -0.181292 0
69.5428 -0.123089 0
69.8393 0.00591721 0
69.5555 -0.19213 0
69.6496 -0.235131 0
69.854 -0.195187 0
69.993 -0.15968 0
69.8386 -0.140803 0
69.8683 -0.227709 0
70.104 -0.151132 0
70.023 -0.252969 0
70.0487 -0.0904569 0
70.0777 -0.216274 0
70.2207 -0.082277 0
70.1346 -0.262116 0
70.2092 -0.300027 0
70.3281 -0.162522 0
70.2907 -0.24257 0
70.2742 -0.117457 0
70.3495 -0.296917 0
70.2944 -0.091335 0
70.3088 -0.308134 0
70.3729 -0.321577 0
70.3537 -0.227832 0
70.3327 -0.263338 0
70.3735 -0.269681 0
70.3597 -0.292081 0
70.2693 -0.113746 0
70.3341 -0.320188 0
70.3245 -0.351899 0
70.1582 -0.224697 0
70.2267 -0.189447 0
70.2737 -0.301293 0
70.2591 -0.332533 0
70.1155 -0.0797542 0
70.148 -0.35034 0
70.1429 -0.385316 0
69.9031 -0.241938 0
70.044 -0.190713 0
70.0526 -0.34289 0
70.0286 -0.355143 0
69.8799 -0.0813227 0
70.0247 -0.405715 0
69.9383 -0.421601 0
69.7783 -0.283761 0
69.8513 -0.341724 0
69.7078 -0.288748 0
69.8399 -0.427439 0
69.5867 -0.122802 0
69.808 -0.411939 0
69.71 -0.399479 0
69.5528 -0.120733 0
69.6683 -0.439485 0
69.6298 -0.397653 0
69.5994 -0.260902 0
69.5373 -0.184367 0
69.7012 -0.458709 0
69.7048 -0.49234 0
69.5087 -0.0942947 0
69.6716 -0.472505 0
69.6778 -0.476703 0
69.5947 -0.347188 0
69.6183 -0.210328 0
69.6403 -0.266463 0
69.7387 -0.538069 0
69.6566 -0.166414 0
69.7587 -0.491252 0
69.7734 -0.459033 0
69.8157 -0.536161 0
69.6843 -0.00371988 0
69.9342 -0.505789 0
69.755 -0.3996 0
69.9102 -0.318508 0
70.0196 -0.359202 0
70.0066 -0.545819 0
70.0843 -0.539072 0
69.8501 -0.114026 0
70.1285 -0.49329 0
70.1788 -0.56798 0
70.1937 -0.549798 0
70.3659 -0.0908755 0
70.1683 -0.408291 0
70.4719 -0.568743 0
70.5388 -0.401944 0
70.4055 -0.330288 0
70.5447 -0.579285 0
70.5471 -0.587222 0
70.3366 -0.0854755 0
70.7177 -0.612049 0
70.7793 -0.557787 0
71.1534 -0.0677278 0
70.935 -0.584338 0
70.6898 -0.402937 0
71.1515 -0.322672 0
71.2657 -0.424508 0
71.0458 -0.511396 0
71.0911 -0.602738 0
71.2519 -0.201945 0
71.3659 -0.538329 0
71.3118 -0.665532 0
71.6357 -0.632476 0
71.6888 0.013871 0
71.5688 -0.516215 0
71.6585 -0.655438 0
71.4864 -0.156322 0
71.7503 -0.688943 0
72.0032 -0.361142 0
71.8283 -0.734136 0
72.3505 -0.205368 0
72.0713 -0.604326 0
72.0287 -0.717822 0
72.1709 -0.132026 0
72.2427 -0.758049 0
72.4993 -0.781266 0
72.3839 -0.656784 0
72.5651 -0.399976 0
72.5237 -0.921412 0
72.8682 -0.406713 0
73.342 -0.0783484 0
72.4866 -0.714727 0
72.6715 -0.940632 0
72.7984 -1.03164 0
73.3158 -0.4169 0
73.0449 -0.983416 0
73.1989 -1.11761 0
73.6308 -0.164577 0
73.4318 -1.22663 0
73.2357 -1.26605 0
73.374 -0.992113 0
73.7962 -0.583625 0
73.8899 -0.726563 0
73.4464 -1.43037 0
74.3701 -0.00686852 0
73.5784 -1.5716 0
73.7608 -1.59757 0
73.6929 -1.65332 0
74.6759 -0.605428 0
74.1722 -1.57471 0
74.332 -1.74964 0
74.8938 -0.0120917 0
74.3983 -2.05075 0
74.9181 -2.05595 0
74.6649 -1.35698 0
74.8806 -0.741918 0
74.7065 -2.18388 0
75.0479 -0.918698 0
75.363 -0.127842 0
74.9724 -1.76915 0
75.1044 -2.27386 0
75.4159 -2.26246 0
75.5094 -0.487747 0
75.8504 -1.93243 0
75.5724 -2.25285 0
75.5998 -0.232752 0
75.8386 -2.43943 0
76.2255 -2.38987 0
76.2891 -1.41799 0
75.659 -0.00913834 0
76.6149 -2.23841 0
76.3402 -0.715461 0
76.6556 -0.713034 0
76.6533 -1.97537 0
76.5303 -1.46801 0
77.3315 -1.80755 0
75.9032 -0.141011 0
77.2101 -2.0222 0
77.1823 -1.08442 0
77.7228 -1.28599 0
75.7482 -0.0479095 0
77.9595 -0.376105 0
77.7857 -0.076854 0
75.0558 0.0915007 0
78.1648 -0.919745 0
78.3312 -0.218704 0
76.1533 0.586812 0
75.7459 0.190306 0
77.1803 -0.0802451 0
78.3122 0.405738 0
75.255 0.17874 0
77.9323 1.28799 0
78.2853 0.502344 0
78.2801 0.754858 0
74.7733 0.889629 0
76.9338 1.56663 0
77.9621 1.65175 0
74.7389 0.14283 0
77.7609 2.13336 0
77.6771 2.12617 0
76.8025 3.45439 0
73.2214 0.251616 0
77.6506 3.14597 0
76.038 2.2099 0
74.4153 1.01981 0
74.2992 2.04502 0
77.4643 3.50602 0
76.7209 4.00457 0
73.6102 0.425056 0
76.5719 4.57491 0
66.5275 -0.0411582 0
66.5511 -0.00287622 0
66.555 0.02382 0
66.5665 -0.0353011 0
66.6478 -0.00122866 0
66.6497 0.0119724 0
66.6613 -0.0125675 0
66.6929 -0.0442718 0
66.7428 -0.00783556 0
66.7441 -0.00406325 0
66.7538 -0.0291347 0
66.8305 -0.0047367 0
66.8187 -0.0166558 0
66.8393 -0.0302501 0
66.8584 -0.0421654 0
66.9091 -0.0126814 0
66.909 -0.0301327 0
66.9219 -0.0385936 0
66.982 -0.00880988 0
66.972 -0.0376867 0
66.9933 -0.0415897 0
67.0193 -0.0469541 0
67.0134 -0.0379116 0
67.0542 -0.025702 0
67.0959 -0.0485651 0
67.0948 -0.0362507 0
67.1278 -0.0607292 0
67.1573 -0.0502763 0
67.1731 -0.0571892 0
67.1561 -0.0256098 0
67.2191 -0.0552621 0
67.2402 -0.0607494 0
67.228 -0.0268905 0
67.3131 -0.0578737 0
67.3281 -0.0565155 0
67.3559 -0.0470761 0
67.3043 -0.0325395 0
67.3847 -0.0394194 0
67.4543 -0.0465094 0
67.4103 -0.0235679 0
67.5469 -0.0263021 0
67.5824 -0.00751196 0
67.6053 -0.0351328 0
67.5452 -0.00866039 0
67.6509 -0.0138778 0
67.757 -0.0127253 0
67.861 0.0123836 0
67.7632 0.0100617 0
67.8733 0.00290021 0
67.9038 0.017445 0
68.0677 -0.00900916 0
68.023 0.0106679 0
68.0768 0.0114877 0
68.1538 0.046149 0
68.2533 0.0178642 0
68.2179 0.00974964 0
68.2936 0.0718579 0
68.468 0.0793644 0
68.3176 0.0804056 0
68.4435 0.110085 0
68.4602 0.115224 0
68.5821 0.0681314 0
68.6874 0.0378334 0
68.7231 0.128733 0
68.4058 0.0456128 0
68.7826 0.147793 0
68.9752 0.183483 0
68.9029 0.155783 0
68.8492 0.0839004 0
69.0602 0.207035 0
69.1094 0.169442 0
69.3548 0.109291 0
69.0538 0.18236 0
69.2676 0.206884 0
69.3641 0.235691 0
69.191 0.0598304 0
69.3651 0.176426 0
69.5518 0.270582 0
69.447 0.141022 0
69.6157 0.22446 0
69.782 0.295782 0
69.7241 0.228638 0
69.9174 0.0843174 0
69.8587 0.271844 0
69.9248 0.30122 0
70.0177 0.086753 0
70.0253 0.33527 0
69.9409 0.252987 0
70.1381 0.273919 0
70.0279 0.185954 0
70.1644 0.368749 0
70.3195 0.42358 0
70.2886 0.113185 0
70.2511 0.297302 0
70.3792 0.439719 0
70.3378 0.325155 0
70.2609 0.14437 0
70.3949 0.410502 0
70.3981 0.423118 0
70.339 0.102903 0
70.3485 0.186768 0
70.3844 0.369766 0
70.4258 0.468173 0
70.3628 0.25619 0
70.4054 0.443391 0
70.3852 0.464694 0
70.2277 0.159773 0
70.3233 0.282632 0
70.3234 0.481186 0
70.2873 0.399387 0
70.2575 0.111729 0
70.2615 0.445611 0
70.1915 0.467194 0
70.0658 0.182495 0
70.2347 0.392543 0
70.1598 0.507917 0
70.0966 0.383979 0
70.1008 0.12448 0
70.1158 0.476508 0
70.0165 0.496486 0
69.9343 0.15415 0
69.9465 0.390321 0
69.8644 0.190351 0
69.8924 0.368815 0
69.8996 0.226431 0
69.974 0.492093 0
69.9251 0.435559 0
69.7364 0.114621 0
69.881 0.416914 0
69.8963 0.434051 0
69.6659 0.102262 0
69.8537 0.355854 0
69.8006 0.346839 0
69.8876 0.400711 0
69.6781 0.0589126 0
69.8424 0.345576 0
69.9247 0.397201 0
69.8401 0.312956 0
69.6869 0.100344 0
69.8744 0.295854 0
69.6863 0.13349 0
69.8166 0.323929 0
69.9094 0.347105 0
70.0025 0.347531 0
69.9997 0.33042 0
69.6641 0.0132541 0
70.0968 0.348096 0
70.1054 0.329567 0
70.0681 0.27129 0
69.9697 0.124044 0
70.0868 0.115885 0
70.1188 0.301709 0
69.805 0.101477 0
70.2684 0.303547 0
70.2191 0.310068 0
70.2139 0.269165 0
70.0454 0.0777903 0
70.3187 0.280568 0
70.5058 0.366457 0
70.2626 0.13298 0
70.2144 0.131134 0
70.4147 0.299095 0
70.6555 0.374276 0
70.0881 0.081946 0
70.7074 0.406591 0
70.7562 0.394852 0
70.522 0.0675644 0
70.961 0.510939 0
70.9992 0.490241 0
71.1167 0.471256 0
70.8595 0.175889 0
70.794 0.182892 0
70.972 0.494971 0
70.6383 0.104653 0
71.2131 0.649836 0
71.2835 0.624962 0
71.3466 0.631664 0
71.0397 0.0755597 0
71.5592 0.770043 0
71.5877 0.824332 0
71.4732 0.400022 0
71.9073 0.678901 0
71.6053 0.34305 0
71.6877 0.823535 0
71.4168 0.176016 0
71.9689 1.05073 0
71.9989 1.03301 0
71.5485 0.190608 0
72.1778 1.03154 0
72.4688 1.25171 0
72.3295 1.20879 0
72.6179 0.267475 0
72.8967 1.42182 0
72.9726 1.57071 0
72.2225 0.761249 0
73.0032 1.19697 0
72.5418 0.474327 0
73.3452 1.75882 0
73.0946 0.179613 0
73.4344 1.76947 0
73.4867 1.73748 0
72.7186 0.13705 0
73.4231 1.59098 0
74.0011 1.97682 0
74.1837 2.02566 0
73.9353 0.530754 0
74.3172 2.04124 0
74.4355 2.22669 0
73.4645 1.1546 0
74.7845 1.54564 0
74.3192 0.550018 0
74.7407 2.27598 0
74.5009 0.206184 0
75.0058 2.22617 0
75.1935 2.22861 0
74.1232 0.140281 0
75.1296 1.94703 0
75.6799 2.2428 0
76.0012 2.1835 0
74.9623 0.481295 0
75.8018 2.09555 0
76.2407 2.2331 0
75.3687 1.69309 0
76.405 1.47594 0
75.2554 0.401233 0
76.0219 2.03581 0
75.4783 0.16821 0
76.6814 2.16007 0
76.8116 1.92858 0
75.2393 0.133821 0
76.696 1.48628 0
77.0794 1.62955 0
77.3844 1.48432 0
75.8633 0.147047 0
77.5348 1.29233 0
77.6292 1.11818 0
76.1139 0.206163 0
77.6657 1.1509 0
77.1246 0.406737 0
76.1424 0.531565 0
75.8762 0.425451 0
77.8087 0.851232 0
77.7462 0.323816 0
78.0728 0.225585 0
75.7703 0.0122396 0
77.6168 -0.175164 0
78.0727 -0.477337 0
75.8837 0.0277835 0
77.4516 -0.196132 0
78.0848 -0.984872 0
77.0719 -0.72605 0
76.003 -0.174895 0
77.9849 -1.28708 0
77.8953 -1.5938 0
76.88 -0.188648 0
76.6278 -1.8639 0
75.115 -1.68969 0
77.747 -1.67702 0
75.1786 -0.217755 0
77.6588 -2.42031 0
75.9773 5.04478 0
76.4773 4.48496 0
72.4905 1.41927 0
75.9308 5.00336 0
74.3302 4.74151 0
75.3269 5.51931 0
72.8525 0.545312 0
74.7025 5.69905 0
73.9438 5.70175 0
72.0021 0.733774 0
73.9263 6.01302 0
77.6002 -2.75774 0
75.3592 -0.121377 0
77.4382 -3.02636 0
76.5993 -3.4032 0
76.0762 -2.91261 0
74.7852 -0.16766 0
76.7442 -3.86102 0
73.1349 5.62574 0
76.2122 -4.7568 0
74.6944 -0.917268 0
76.0298 -4.61085 0
75.2962 -5.32769 0
71.279 1.78733 0
75.0717 -5.25162 0
75.9132 -2.77107 0
75.5567 -4.72678 0
74.1172 -3.5437 0
73.2144 -0.596665 0
74.8705 -4.83628 0
74.3481 -5.16621 0
72.6984 5.90376 0
74.3712 -5.20284 0
73.8166 -0.302491 0
73.6743 -5.48386 0
73.2393 -5.96327 0
72.7754 -0.393153 0
72.5171 -6.10435 0
72.8191 -4.51168 0
71.3433 -0.50405 0
71.866 -6.20549 0
71.7747 -3.5642 0
72.8249 -2.72565 0
72.277 -5.37608 0
71.4744 -5.66072 0
73.2151 3.15006 0
70.7168 0.41625 0
72.6891 2.15837 0
71.7435 -0.0510237 0
71.1521 -6.05852 0
72.5162 5.6231 0
70.5918 0.293994 0
71.9662 4.8519 0
70.5556 -6.01915 0
71.4489 -1.28992 0
69.9859 -4.4298 0
71.9956 6.33974 0
69.8958 1.59811 0
71.9685 6.26203 0
70.4443 5.40206 0
70.0806 0.319861 0
70.9777 5.62562 0
70.3619 -4.61848 0
71.1676 -0.374877 0
69.9658 -6.13341 0
70.0157 -5.94178 0
71.194 6.00732 0
69.8636 5.80851 0
69.694 0.0308104 0
70.5936 5.9744 0
69.1677 3.79765 0
69.6395 1.82166 0
69.2946 -6.07378 0
69.9144 -0.836327 0
69.5547 -5.97559 0
68.93 6.04916 0
68.8417 -5.61714 0
69.3849 -0.852962 0
69.0603 -2.60139 0
68.0462 -5.36211 0
70.026 -3.03468 0
67.8846 -5.17114 0
69.1102 -0.244449 0
67.2222 -4.96855 0
68.7473 2.30156 0
69.2598 0.371826 0
68.6199 5.16276 0
68.9283 0.0961768 0
68.4423 5.96544 0
68.3175 5.6343 0
68.7112 0.149875 0
67.744 4.95626 0
68.6038 0.0952206 0
68.1613 -4.67854 0
69.1072 -0.469193 0
69.0446 4.47983 0
67.7643 0.578219 0
67.5204 4.67503 0
67.1471 -4.96702 0
69.2146 -0.198479 0
65.9182 -4.19657 0
67.7729 -0.532627 0
66.4438 -4.21531 0
68.2197 2.06371 0
67.7797 0.234763 0
68.6666 -3.84865 0
67.7962 -0.218245 0
65.9894 -3.95899 0
67.0207 4.24359 0
67.0137 -3.17204 0
67.8306 -0.402027 0
66.1785 -3.43517 0
67.701 2.47652 0
66.0128 1.52899 0
66.6217 3.70224 0
67.4757 -0.634433 0
66.1238 -3.74635 0
67.7202 0.484333 0
66.6003 4.86233 0
67.5098 -1.78262 0
67.7882 -0.178056 0
65.8692 -3.42751 0
66.4702 4.42283 0
67.6887 0.563958 0
66.3108 3.52778 0
66.1498 3.45738 0
67.6829 0.459416 0
65.5769 3.08982 0
65.265 -3.01692 0
67.733 -0.43533 0
65.0096 -3.02386 0
66.6478 -1.47136 0
67.7607 -0.349825 0
64.6483 -2.06841 0
65.5843 3.81794 0
67.5621 0.479427 0
66.4559 2.52079 0
65.0086 -1.84425 0
67.5719 -0.345263 0
64.5202 -1.71448 0
64.7112 2.811 0
67.5571 0.266993 0
64.9694 2.68153 0
65.1772 2.20133 0
67.7766 0.056237 0
64.6296 2.32657 0
65.372 -1.10301 0
67.4936 -0.418739 0
64.8285 -0.976451 0
64.0094 -0.593604 0
66.9803 -0.609021 0
64.1808 -0.493248 0
66.7573 0.699556 0
67.6367 0.103213 0
66.1519 1.87479 0
64.5489 1.85053 0
67.448 0.0356407 0
64.1 1.22166 0
67.1921 -0.156354 0
67.7345 -0.220025 0
64.0629 -0.122966 0
64.3898 0.00124608 0
67.6623 -0.0950606 0
66.023 0.251131 0
64.6641 0.447372 0
67.6968 -0.108592 0
67.1561 -4.15404 0
67.8884 -0.489212 0
67.7653 0.25907 0
67.8679 5.09436 0
68.453 -5.59032 0
70.476 -0.724471 0
69.5495 0.798285 0
70.371 6.25968 0
67.6532 0.360667 0
65.2256 3.6539 0
64.74 -2.07987 0
67.7109 -0.347752 0
67.8089 -0.565866 0
67.3669 -2.77691 0
67.8653 0.557428 0
67.8328 0.336031 0
67.6436 -0.00416216 0
64.4712 1.61138 0
68.8697 0.384169 0
68.1339 1.08177 0
68.4182 -1.00341 0
69.4329 -0.558138 0
72.8085 -0.888041 0
72.877 -5.96034 0
74.1924 5.70764 0
72.5995 0.32545 0
67.5512 1.08688 0
68.9094 5.8218 0
68.1323 -5.12052 0
68.6972 -1.87066 0
66.8302 -1.03979 0
65.2012 -0.130512 0
66.5278 4.3455 0
67.8204 1.31881 0
67.6883 -1.19169 0
65.3419 -3.41677 0
77.2411 -3.4752 0
74.5738 -0.433336 0
74.3561 0.509186 0
77.6942 2.76138 0
67.8651 -0.574214 0
67.8724 -0.0935492 0
67.8575 0.23493 0
68.6604 0.566191 0
71.1214 0.559352 0
70.9692 3.07848 0
69.9684 -1.51841 0
71.846 -1.28229 0
70.2537 3.67341 0
72.3216 5.97084 0
71.5558 -6.17053 0
70.7599 -1.43006 0
73.39 1.12906 0
74.3782 3.55837 0
73.1711 -1.95837 0
73.843 -0.0171523 0
75.9062 0.0253133 0
78.1123 -0.00407318 0
77.8139 -1.3477 0
75.3923 -0.00015031 0
75.4935 0.0134164 0
76.86 1.96394 0
76.2775 -2.22063 0
75.6706 -0.259384 0
68.6681 -1.13912 0
68.3675 -0.353404 0
68.1478 0.798798 0
68.8064 0.769434 0
68.0371 0.744001 0
67.8285 0.391496 0
67.7903 -0.20472 0
67.9767 -0.676785 0
75.2998 0.528054 0
76.3882 0.88124 0
75.5272 -0.597162 0
75.525 -0.057299 0
66.0862 -0.738577 0
67.684 -0.209101 0
67.2397 -0.308269 0
67.707 -0.465455 0
67.7403 0.351839 0
67.7033 0.629948 0
75.3144 2.20567 0
74.7398 0.347159 0
75.0964 -0.0169566 0
74.3312 -1.88419 0
70.2762 -0.0278223 0
69.8026 -2.15306 0
70.4198 1.38802 0
69.6747 0.362053 0
67.5575 3.12799 0
67.2036 5.36475 0
67.1122 -4.54467 0
67.948 -2.50656 0
68.3931 -1.65885 0
67.3353 -1.64903 0
67.6252 3.53909 0
67.8873 1.69577 0
75.7655 -0.3564 0
75.7398 -0.123499 0
75.8458 0.0951252 0
76.6009 1.12276 0
68.9572 -3.94344 0
69.6991 -3.83368 0
69.4478 3.49196 0
69.8315 6.23745 0
68.4896 -3.01768 0
69.3946 -1.81339 0
69.1942 2.43682 0
68.7793 1.27271 0
73.9087 2.04487 0
73.5956 0.225183 0
74.0868 -0.00921045 0
73.0715 -1.17132 0
67.1476 0.657705 0
67.7234 0.0547759 0
75.1388 -0.288377 0
75.6119 -1.35269 0
75.75 0.849864 0
75.0001 0.129982 0
68.5673 -0.681493 0
68.1462 -0.845252 0
68.7185 1.42483 0
68.1646 0.442195 0
67.8472 -0.267375 0
68.0814 -0.457593 0
67.9802 0.346452 0
67.8063 0.256457 0
64.7544 1.34774 0
66.8765 1.11323 0
73.7456 -2.2066 0
76.2818 -4.34856 0
77.0203 3.89601 0
73.5639 1.59893 0
66.8146 -1.73638 0
65.2418 -2.13437 0
72.0793 0.175038 0
72.135 1.09902 0
70.6749 0.0494484 0
71.5059 0.808685 0
72.3905 -0.766639 0
72.4349 -0.0995671 0
71.4348 -0.599566 0
71.4039 0.0104866 0
74.2885 -0.438809 0
74.0293 -1.04747 0
74.2369 0.784887 0
73.9805 0.00196178 0
67.7327 0.280237 0
67.4367 0.376293 0
66.4568 0.352009 0
64.9207 0.673174 0
67.5703 -0.246179 0
67.7174 -0.281352 0
67.1491 0.176334 0
67.1328 -0.48569 0
77.933 -1.32231 0
75.5186 -1.02648 0
76.4987 1.15241 0
78.2349 -0.116298 0
68.0879 -0.0536427 0
68.1685 -0.25366 0
67.8792 0.0913484 0
68.3018 0.152573 0
73.1163 -0.22296 0
72.9308 -0.534667 0
73.1741 0.54525 0
72.3857 0.114431 0
70.3454 0.0853034 0
70.583 0.343577 0
70.817 -0.646308 0
70.6198 -0.133064 0
68.321 -0.548447 0
68.8705 -1.74597 0
68.4461 1.27146 0
68.2038 0.881352 0
68.6079 2.32387 0
67.3799 1.28722 0
67.8604 -1.36284 0
68.3196 -2.2188 0
76.4298 0.171345 0
76.9815 1.60026 0
76.7229 -2.02358 0
76.7149 -0.509618 0
67.48 -0.722001 0
67.592 -0.859467 0
67.5952 0.682419 0
67.1703 0.867527 0
70.4027 0.347759 0
69.9733 0.12717 0
70.0611 -0.111965 0
70.3519 -0.561116 0
72.5894 3.1282 0
74.2093 5.08039 0
73.6416 -5.8845 0
73.1743 -2.36834 0
65.6539 -2.53968 0
67.3364 -2.70219 0
72.2296 -2.23161 0
72.5725 -0.800812 0
71.569 0.364057 0
73.7682 2.17031 0
65.425 3.49415 0
66.7097 2.12966 0
71.8969 -0.0285318 0
72.054 -0.440153 0
71.7867 0.388534 0
71.6846 0.114201 0
74.8545 -0.224307 0
74.7746 -0.966278 0
75.2561 1.25238 0
74.4597 0.181262 0
71.1852 1.08814 0
70.0864 0.277862 0
70.7448 -0.253393 0
71.145 -2.29598 0
75.5792 1.02863 0
75.4596 2.02939 0
75.163 -2.12065 0
75.9371 -1.01176 0
70.557 -2.82613 0
71.2131 -1.35707 0
70.768 2.05747 0
72.629 4.39056 0
69.9451 0.286583 0
69.742 0.0604036 0
69.8662 -0.123916 0
69.8251 -0.51455 0
70.8306 -0.170032 0
71.1678 0.0109464 0
70.9349 0.0726089 0
70.5854 0.271643 0
69.2509 0.412307 0
69.0762 1.0832 0
69.264 -0.943217 0
69.7687 -0.260697 0
70.1491 2.17792 0
69.1619 1.60444 0
68.6272 -2.24935 0
68.031 -2.24156 0
75.9357 -0.0836439 0
75.7727 -0.0527891 0
75.6738 0.0610231 0
76.277 -0.164394 0
69.019 2.95367 0
69.4355 2.03186 0
68.8515 -0.686572 0
68.7783 -0.246768 0
68.6964 0.198616 0
69.0811 0.739529 0
66.5699 -0.63553 0
67.3395 -0.858033 0
77.5857 -2.18202 0
75.6557 -1.24013 0
75.4743 2.48302 0
77.9654 2.05501 0
67.7678 -0.618215 0
67.8162 -0.275336 0
67.7216 0.338571 0
67.8309 0.597397 0
68.2745 0.0555221 0
68.2295 0.370773 0
68.3656 -0.197788 0
68.472 -0.00546758 0
65.7909 -0.186 0
64.049 0.170299 0
72.489 2.38367 0
75.3539 1.95668 0
74.2767 -1.69922 0
74.8205 -3.41422 0
67.3971 1.50581 0
67.0193 0.78231 0
67.7804 -0.0476572 0
67.4162 -0.0492106 0
69.5313 5.04783 0
67.9039 3.153 0
69.1751 -3.20498 0
68.5002 -5.79422 0
67.1597 0.505526 0
67.5873 0.394372 0
74.1907 1.03201 0
74.2336 2.13819 0
73.5573 -1.40497 0
74.2382 -0.365469 0
70.089 -0.134907 0
70.4579 -0.0720035 0
70.3309 0.0442967 0
70.1998 0.275668 0
77.7449 -1.26693 0
77.0979 0.228692 0
76.8662 0.388788 0
77.906 0.582213 0
67.2448 0.0612495 0
66.8251 -1.28249 0
67.8999 0.881977 0
68.0666 1.41448 0
68.201 -1.68343 0
68.0171 -0.610529 0
67.7084 0.108986 0
67.3405 0.24572 0