# vtk DataFile Version 3.0
Unstructured Grid for Triangles
ASCII
DATASET UNSTRUCTURED_GRID
POINTS 29612 DOUBLE
-0.000272397 1.23686e-05 0
-0.000295789 9.5838e-06 0
-0.000277865 -3.1235e-06 0
0.002024 0.0005 0
0.00203975 0.00049875 0
0.00205 0.0005 0
0.00203975 -0.00049875 0
0.002024 -0.0005 0
0.00205 -0.0005 0
0.0020295 0.0004975 0
0.0020295 -0.0004975 0
0.00201925 0.00049625 0
0.00201925 -0.00049625 0
-0.000529747 -0.000479887 0
-0.00055 -0.0005 0
-0.000524 -0.0005 0
-0.000505983 -0.000484325 0
-0.000498 -0.0005 0
-0.000472 -0.0005 0
-0.000483864 -0.000487761 0
-0.000446 -0.0005 0
-0.000459 -0.000484239 0
-0.000429453 -0.000424878 0
-0.000447486 -0.000420717 0
-0.000441829 -0.000436609 0
-0.000512578 -0.000462101 0
-0.000493078 -0.000453594 0
-0.00050706 -0.000439006 0
-0.000419243 -0.000477545 0
-0.000440307 -0.000471837 0
-0.00043691 -0.000486724 0
-0.000516129 -0.000420948 0
-0.000495355 -0.000415432 0
-0.000511646 -0.00040128 0
-0.000394697 -0.000481197 0
-0.000406302 -0.000455143 0
-0.000537257 -0.000388197 0
-0.000531099 -0.000407297 0
-0.000523982 -0.000388328 0
-0.000370063 -0.000472956 0
-0.000368 -0.0005 0
-0.00035308 -0.000485302 0
-0.0005072 -0.00037867 0
-0.000485506 -0.000383975 0
-0.000490949 -0.000359622 0
-0.000337127 -0.000484331 0
-0.000316 -0.0005 0
-0.000326495 -0.00047415 0
-0.00055 -0.00035 0
-0.000531201 -0.000370361 0
-0.000528367 -0.000346817 0
-0.000363898 -0.000448809 0
-0.000383315 -0.000460336 0
-3.26269e-05 -0.000415503 0
-5.99662e-05 -0.000409556 0
-5.46944e-05 -0.000429488 0
-0.000529747 0.000479887 0
-0.00055 0.0005 0
-0.00055 0.000475 0
-0.00055 0.00045 0
-0.000534834 0.000429171 0
-0.000526943 0.000442611 0
-0.000534026 0.000460176 0
-0.000531099 0.000407297 0
-0.000511672 0.000401178 0
-0.000516129 0.000420948 0
-0.000524 0.0005 0
-0.000505983 0.000484325 0
-0.000531201 0.000370361 0
-0.0005072 0.00037867 0
-0.000523982 0.000388328 0
-0.00048341 0.000469132 0
-0.000483679 0.000487539 0
-0.000528367 0.000346817 0
-0.00055 0.000325 0
-0.000525657 0.000328474 0
-0.000498 0.0005 0
-0.000530382 0.0003125 0
-0.000419243 0.000477545 0
-0.000440015 0.00047335 0
-0.000425917 0.000463678 0
-0.000435138 0.000262661 0
-0.000414982 0.000274462 0
-0.000435654 0.000285217 0
-0.000459 0.000484239 0
-0.000436852 0.000487027 0
-0.000446 0.0005 0
-0.000533308 0.000292503 0
-0.00055 0.000275 0
-0.000523377 0.000276953 0
-0.000425282 0.000446352 0
-0.000409368 0.000435728 0
-0.000406302 0.000455143 0
0.002009 0.000495 0
0.001998 0.0005 0
0.00199875 0.00049375 0
0.0019885 0.0004925 0
0.001972 0.0005 0
0.00197825 0.00049125 0
0.001968 0.00049 0
0.00195775 0.00048875 0
0.001946 0.0005 0
0.0019475 0.0004875 0
0.00193725 0.00048625 0
0.00192 0.0005 0
0.001927 0.000485 0
0.00191675 0.00048375 0
0.0019065 0.0004825 0
0.001894 0.0005 0
0.00189625 0.00048125 0
0.001886 0.00048 0
0.001868 0.0005 0
0.00187575 0.00047875 0
0.0018655 0.0004775 0
0.00185515 0.00048575 0
0.001842 0.0005 0
0.001845 0.000475 0
0.00185525 0.00047625 0
0.00182564 0.0004829 0
0.001816 0.0005 0
0.0018245 0.0004725 0
0.00183475 0.00047375 0
0.00181425 0.00047125 0
0.00180295 0.000482657 0
0.00179 0.0005 0
0.00179375 0.00046875 0
0.001804 0.00047 0
0.00178168 0.000480619 0
0.001764 0.0005 0
0.00177325 0.00046625 0
0.0017835 0.0004675 0
0.00176428 0.000476631 0
0.001763 0.000465 0
0.001738 0.0005 0
0.001751 0.000484164 0
0.00175275 0.00046375 0
0.00174025 0.000475632 0
0.001712 0.0005 0
0.00172615 0.000478449 0
0.001722 0.00046 0
0.00173225 0.00046125 0
0.0017015 0.0004575 0
0.00171243 0.00047381 0
0.00169554 0.000479999 0
0.001686 0.0005 0
0.00167507 0.000479751 0
0.00168498 0.000464861 0
0.00166 0.0005 0
0.0016558 0.000471459 0
0.00167135 0.000462887 0
0.001681 0.000455 0
0.0016605 0.0004525 0
0.00167075 0.00045375 0
0.00164059 0.000461599 0
0.0016394 0.000479551 0
0.00162881 0.00046615 0
0.00162975 0.00044875 0
0.00165025 0.00045125 0
0.00164 0.00045 0
0.00161754 0.000458641 0
0.00161722 0.000478101 0
0.00159956 0.000458294 0
0.00160925 0.00044625 0
0.0016195 0.0004475 0
0.00157667 0.000460322 0
0.00158875 0.00044375 0
0.00159194 0.000480155 0
0.001599 0.000445 0
0.0015785 0.0004425 0
0.00155808 0.000456757 0
0.00155647 0.000476701 0
0.00154059 0.000466642 0
0.00153756 0.000450083 0
0.00154839 0.000450446 0
0.00156825 0.00044125 0
0.00151954 0.000480508 0
0.00154052 0.00048477 0
0.00153 0.0005 0
0.00154775 0.00043875 0
0.00152142 0.000456625 0
0.00152821 0.000445753 0
0.0015375 0.0004375 0
0.001504 0.0005 0
0.00149644 0.000485168 0
0.00151787 0.000443178 0
0.00152725 0.00043625 0
0.00150675 0.00043375 0
0.001517 0.000435 0
0.00148119 0.000450887 0
0.00148072 0.000475756 0
0.00146584 0.000463516 0
0.00150008 0.00046396 0
0.00149351 0.00044543 0
0.0015061 0.000446252 0
0.001476 0.00043 0
0.00148625 0.00043125 0
0.00146492 0.000482975 0
0.00144888 0.000473562 0
0.00146676 0.000444259 0
0.00145255 0.000453656 0
0.00145652 0.000438669 0
0.00141401 0.000479821 0
0.001426 0.0005 0
0.0014 0.0005 0
0.00144374 0.000438862 0
0.0014555 0.0004275 0
0.001435 0.000425 0
0.00144525 0.00042625 0
0.00142746 0.000438121 0
0.00141288 0.000443191 0
0.00141707 0.000432778 0
0.0013921 0.000438992 0
0.00140355 0.00045932 0
0.00138302 0.00045922 0
0.00142912 0.000458869 0
0.00140592 0.000430037 0
0.0014145 0.0004225 0
0.00136458 0.00045869 0
0.00137106 0.00044063 0
0.001394 0.00042 0
0.00138259 0.000428915 0
0.00137484 0.000477094 0
0.00139166 0.000478902 0
0.0013586 0.000478984 0
0.00133449 0.000478649 0
0.00134717 0.000461848 0
0.00137256 0.000425134 0
0.00135323 0.000424541 0
0.00136325 0.00041625 0
0.00136122 0.00042876 0
0.00131206 0.000447284 0
0.00133168 0.000456738 0
0.00131773 0.000465243 0
0.00134756 0.000440343 0
0.00132747 0.000436463 0
0.00133483 0.000426786 0
0.00131081 0.00041867 0
0.00132382 0.000422815 0
0.00131507 0.00043122 0
0.00131059 0.000480123 0
0.0013325 0.0004125 0
0.0012915 0.0004075 0
0.0012982 0.000418199 0
0.00128915 0.000426216 0
0.00126366 0.000447574 0
0.00127331 0.000430908 0
0.00128781 0.000444872 0
0.00125336 0.000428376 0
0.00130218 0.000431077 0
0.00127894 0.000416344 0
0.00124774 0.000469608 0
0.00127668 0.000464148 0
0.00126591 0.00048331 0
0.00126722 0.000418415 0
0.00125768 0.000411931 0
0.00124326 0.000413546 0
0.0012505 0.0004025 0
0.00122408 0.000450118 0
0.00120276 0.000447432 0
0.0012139 0.000432235 0
0.00124336 0.000444132 0
0.00123056 0.000427595 0
0.00122977 0.000409049 0
0.0012185 0.000469217 0
0.00122676 0.000485947 0
0.00120525 0.000486094 0
0.00121479 0.000413153 0
0.00119547 0.000424221 0
0.00120249 0.000407448 0
0.00119925 0.00039625 0
0.00119346 0.000406114 0
0.00117479 0.000447279 0
0.00114726 0.000445259 0
0.0011571 0.000427814 0
0.00119443 0.000466611 0
0.00117447 0.000421596 0
0.00118421 0.00040752 0
0.00117409 0.000404437 0
0.00116775 0.000470073 0
0.001179 0.0004855 0
0.00115473 0.000484802 0
0.0011685 0.0003925 0
0.00117875 0.00039375 0
0.00115454 0.000400551 0
0.001148 0.00039 0
0.00115825 0.00039125 0
0.00111703 0.000423398 0
0.00113786 0.000426731 0
0.00112589 0.000443871 0
0.00113234 0.000406671 0
0.00114754 0.000413371 0
0.001106 0.000442326 0
0.00109703 0.000424261 0
0.0011275 0.0003875 0
0.00113775 0.00038875 0
0.00110211 0.000480875 0
0.00108244 0.000471951 0
0.00109312 0.000458413 0
0.00111755 0.000399116 0
0.0010944 0.000392972 0
0.00110415 0.000405876 0
0.00108839 0.000407536 0
0.00106472 0.000476905 0
0.00107274 0.000457868 0
0.00108011 0.000392415 0
0.00106885 0.000404365 0
0.00106625 0.000388708 0
0.00105286 0.000419254 0
0.00105055 0.000395469 0
0.00104215 0.000439764 0
0.00106346 0.000440629 0
0.00100945 0.000451249 0
0.00102825 0.00045614 0
0.00101189 0.000468452 0
0.00107625 0.00038125 0
0.00105575 0.00037875 0
0.001066 0.00038 0
0.00103352 0.000476905 0
0.00101803 0.00048465 0
0.00103685 0.000389398 0
0.0010245 0.00038825 0
0.00103525 0.00037625 0
0.00101092 0.000399779 0
0.00101267 0.000382619 0
0.00101382 0.00042025 0
0.00103187 0.000405286 0
0.00103359 0.000424605 0
0.000987383 0.00045447 0
0.000999411 0.000435161 0
0.0009744 0.000433145 0
0.0010045 0.0003725 0
0.00101475 0.00037375 0
0.000970845 0.000465215 0
0.000952614 0.000467664 0
0.000961768 0.000449944 0
0.00099729 0.000387704 0
0.000978901 0.00039598 0
0.000985823 0.000381492 0
0.000962289 0.000393709 0
0.000974259 0.000381279 0
0.00097375 0.00036875 0
0.000963045 0.000376631 0
0.000958 0.0005 0
0.000932 0.0005 0
0.000947542 0.00048457 0
0.000949675 0.000385245 0
0.000936214 0.000389472 0
0.000940006 0.000374906 0
0.000966411 0.000412573 0
0.000944241 0.000407079 0
0.000903569 0.000424993 0
0.000921701 0.000402409 0
0.000927439 0.000427744 0
0.000889795 0.000409067 0
0.000903071 0.00040248 0
0.000925447 0.000377721 0
0.00093275 0.00036375 0
0.000907708 0.000387127 0
0.000911303 0.000370839 0
0.000911933 0.000455145 0
0.000930678 0.000473279 0
0.000911886 0.000482603 0
0.000887724 0.000388076 0
0.000899595 0.000375116 0
0.000902 0.00036 0
0.000889241 0.00036954 0
0.000836977 0.000459472 0
0.000836223 0.000483578 0
0.000820467 0.000474142 0
0.000871227 0.000403557 0
0.000861 0.000355 0
0.000868368 0.000365714 0
0.00085484 0.00036588 0
0.000847735 0.000402845 0
0.000823121 0.000421599 0
0.000826582 0.000398147 0
0.000846943 0.00042454 0
0.000838832 0.000378613 0
0.000835569 0.000363808 0
0.000844098 0.00036291 0
0.00085075 0.00035375 0
0.000851465 0.000477164 0
0.00083025 0.00035125 0
0.000822824 0.000368659 0
0.00081446 0.000357362 0
0.000805884 0.000371794 0
0.000753471 0.000477524 0
0.000738313 0.000473927 0
0.000739102 0.000461526 0
0.00079826 0.000358588 0
0.000788607 0.000376287 0
0.000781733 0.000357987 0
0.000816783 0.000384471 0
0.000807975 0.000404095 0
0.000752138 0.000404775 0
0.000767682 0.000417043 0
0.000749617 0.000421803 0
0.000752903 0.000384008 0
0.000738293 0.000393136 0
0.000772614 0.000394048 0
0.00076863 0.000371878 0
0.000765995 0.000354121 0
0.000779 0.000345 0
0.00071811 0.000453059 0
0.000738069 0.000437967 0
0.000752085 0.000365972 0
0.000728123 0.000374583 0
0.000741845 0.000354664 0
[...]
CELL_DATA 58684
VECTORS velocity DOUBLE
64.6406 0.226012 0
67.7105 0.000389459 0
67.571 0.000269769 0
67.7184 0.00979916 0
67.5718 -0.0133854 0
67.7326 -0.00239135 0
67.5899 0.00387567 0
67.8406 0.010924 0
67.8684 0.0197807 0
67.955 0.00877338 0
68.0581 0.00826208 0
68.119 -0.253658 0
67.8934 0.072024 0
68.2053 -0.081637 0
67.8871 0.1522 0
68.4275 -0.118045 0
67.8374 0.135893 0
68.7509 -0.106168 0
67.8829 0.161982 0
69.1355 -0.066624 0
67.8066 0.136529 0
68.7178 -0.254363 0
73.1221 -1.7952 0
67.8093 -0.0149946 0
67.8433 -0.0716626 0
67.8073 -0.0319235 0
67.869 -0.150784 0
67.8695 -0.0212522 0
67.8384 -0.208414 0
67.9457 -0.0221598 0
67.8096 -0.169845 0
67.9235 -0.00947627 0
67.8459 -0.177263 0
68.3006 0.0943319 0
67.9242 0.746101 0
68.1409 0.0382225 0
67.7797 -0.198348 0
68.3703 0.234098 0
67.717 -0.0138933 0
67.7201 0.00157292 0
67.742 0.00423169 0
67.7434 -0.00936531 0
67.736 0.00412627 0
67.7602 0.00403019 0
67.7677 -0.00059782 0
67.7709 -0.00265542 0
67.7764 0.00613094 0
67.8036 0.000537334 0
67.8104 -0.00092844 0
67.8185 0.0106836 0
67.8527 0.00194383 0
67.864 0.00185467 0
67.8747 0.00758283 0
67.8931 0.0129418 0
67.9244 0.0028541 0
67.9353 0.0075356 0
67.9591 0.0155251 0
67.9993 -0.00123614 0
68.0132 0.00163468 0
68.0324 0.00958051 0
68.0599 0.0113643 0
68.0753 0.00125642 0
68.1183 0.00948283 0
68.1568 0.0095471 0
68.1649 0.00595341 0
68.1771 0.00888482 0
68.2025 0.0115833 0
68.2354 0.00947166 0
68.2476 0.000789381 0
68.2744 0.00738036 0
68.3093 0.00767476 0
68.321 -0.00674651 0
68.342 0.000872448 0
68.3698 -0.0169195 0
68.3957 0.00646743 0
68.4129 -0.00945706 0
68.4238 -0.010454 0
68.461 0.0043755 0
68.4711 -0.0197225 0
68.5207 -0.0186672 0
68.4821 -0.0161933 0
68.5246 0.00181688 0
68.5437 -0.0206935 0
68.532 -0.0301335 0
68.5883 -0.0268627 0
68.5743 -0.0336815 0
68.571 -0.0401425 0
68.5904 -0.0519674 0
68.6209 -0.0404225 0
68.6399 -0.0537509 0
68.6073 -0.044775 0
68.6308 -0.0638553 0
68.6484 -0.051196 0
68.648 -0.0516524 0
68.6542 -0.0699887 0
68.6774 -0.0651443 0
68.658 -0.0530848 0
68.6721 -0.0719716 0
68.6801 -0.0778749 0
68.6707 -0.0590445 0
68.6678 -0.0685914 0
68.6766 -0.0679235 0
68.6553 -0.0201525 0
68.678 -0.0774181 0
68.6742 -0.0734136 0
68.675 -0.0792471 0
68.6335 -0.0138872 0
68.676 -0.081807 0
68.677 -0.0856627 0
68.611 -0.0389215 0
68.6277 -0.042724 0
68.6482 -0.0608738 0
68.6449 -0.0714851 0
68.5777 -0.0198353 0
68.6009 -0.063534 0
68.5855 -0.0366957 0
68.4376 -0.00947093 0
68.6173 -0.0695491 0
68.6034 -0.075718 0
68.541 -0.0649094 0
68.4514 -0.032805 0
68.4809 -0.0254362 0
68.539 -0.0622558 0
68.3948 -0.0309602 0
68.4833 -0.0564941 0
68.396 -0.016845 0
68.4574 -0.0514222 0
68.2715 -0.0179435 0
68.4373 -0.0441496 0
68.4005 -0.0393849 0
68.2107 -0.0211232 0
68.3151 -0.0363584 0
68.2214 -0.0124135 0
68.2687 -0.0304955 0
68.1753 -0.0206421 0
68.3159 -0.0346602 0
68.2127 -0.0215051 0
68.1505 -0.0168373 0
68.1355 -0.0128947 0
68.1919 -0.0170791 0
68.1718 -0.0231842 0
68.0464 -0.00299285 0
68.1479 -0.0243123 0
68.1706 -0.0314138 0
68.1423 -0.0268531 0
68.073 -0.00319805 0
68.126 -0.0260039 0
68.1339 -0.033442 0
68.0301 -0.00457158 0
68.1842 -0.0482805 0
68.2074 -0.0525206 0
68.3239 -0.0253014 0
68.1795 -0.0311523 0
68.2215 -0.039259 0
68.2594 -0.0737498 0
68.1915 0.0058921 0
68.2884 -0.0952806 0
68.406 -0.117033 0
68.5468 -0.0998674 0
68.4533 -0.101146 0
68.7165 -0.132235 0
68.5218 -0.143091 0
68.7639 -0.0304272 0
68.5547 -0.127958 0
68.8006 -0.164093 0
68.966 -0.0655608 0
69.0459 -0.25644 0
69.1998 -0.240054 0
69.2393 -0.120271 0
69.61 -0.134927 0
69.0315 -0.23897 0
69.1534 -0.288328 0
69.5434 -0.0550147 0
69.4662 -0.306767 0
69.6855 -0.357432 0
69.4826 -0.247568 0
69.8626 -0.154433 0
70.0009 -0.230005 0
69.7415 -0.399428 0
70.2204 -0.147162 0
70.0395 -0.375255 0
70.1635 -0.379133 0
70.196 -0.449749 0
70.3667 0.00863904 0
70.5458 -0.451183 0
70.2628 -0.348635 0
70.6915 -0.322095 0
70.8743 -0.389738 0
70.6501 -0.504386 0
70.8395 -0.515952 0
70.6951 -0.113526 0
70.9458 -0.508313 0
70.9814 -0.577809 0
71.0297 -0.571179 0
71.4024 -0.146077 0
71.0616 -0.464948 0
71.3355 -0.630615 0
71.5237 -0.530594 0
71.392 -0.450949 0
71.4601 -0.690288 0
71.4178 -0.666235 0
71.3778 -0.127181 0
71.602 -0.749695 0
71.6572 -0.715486 0
72.0833 -0.164402 0
71.8071 -0.810993 0
71.6324 -0.566604 0
72.0414 -0.568502 0
72.109 -0.74578 0
71.9247 -0.7657 0
71.8895 -0.873055 0
72.1347 -0.387033 0
72.1123 -0.904417 0
72.0558 -0.995451 0
72.2988 -1.08524 0
72.4861 -0.0141243 0
72.3324 -0.943246 0
72.3173 -1.15432 0
72.3231 -0.321148 0
72.3852 -1.22347 0
72.7107 -0.786171 0
72.459 -1.27789 0
73.0397 -0.483896 0
72.685 -1.22819 0
72.6274 -1.39624 0
72.9048 -0.266034 0
72.8321 -1.48572 0
73.132 -1.57724 0
73.0433 -1.32474 0
73.2297 -0.857965 0
73.1472 -1.81823 0
73.5285 -0.790308 0
74.0197 -0.136246 0
73.114 -1.4617 0
73.3311 -1.85155 0
73.5245 -2.00574 0
74.0012 -0.712537 0
73.8253 -1.82496 0
74.0999 -2.03881 0
74.309 -0.246317 0
74.4194 -2.06732 0
74.1727 -2.25206 0
74.1576 -1.69512 0
74.5282 -0.863068 0
74.6802 -1.02869 0
74.4938 -2.35373 0
75.1104 -0.00776994 0
74.717 -2.52677 0
75.0072 -2.41837 0
74.897 -2.55528 0
75.5417 -0.647182 0
75.3382 -2.13203 0
75.7684 -2.18764 0
75.7408 -0.00495691 0
75.9135 -2.58634 0
76.4394 -2.25537 0
75.8441 -1.60812 0
75.8127 -0.749436 0
76.3034 -2.50245 0
76.0936 -0.908413 0
76.3511 -0.0879491 0
76.3689 -1.77184 0
76.8424 -2.2827 0
77.2191 -2.15334 0
76.5525 -0.329715 0
77.3958 -1.5838 0
77.408 -1.97092 0
76.6928 -0.0940708 0
77.6573 -1.95797 0
78.0301 -1.69174 0
77.7544 -0.870177 0
76.7543 0.0102743 0
78.3427 -1.29659 0
77.5944 -0.137518 0
77.9419 -0.030458 0
78.2753 -1.05032 0
78.0617 -0.613545 0
78.9207 -0.656186 0
76.9955 0.228973 0
78.842 -0.834653 0
78.513 -0.00513974 0
79.1045 0.0841888 0
76.8762 0.0637379 0
79.1206 0.90831 0
78.9128 1.14386 0
75.9355 0.161784 0
79.2787 0.542653 0
79.269 1.06168 0
77.0784 1.27432 0
76.7884 0.587143 0
78.2647 0.851149 0
79.161 1.60872 0
76.1991 0.295282 0
78.6653 2.41851 0
79.0586 1.83351 0
79.055 2.0399 0
75.5275 1.24661 0
77.6814 2.55539 0
78.5304 2.74228 0
75.5696 0.207255 0
78.3403 3.17677 0
78.2687 3.06579 0
77.2335 4.27895 0
73.8307 0.314889 0
78.0222 4.05587 0
76.5786 3.00631 0
75.1241 1.35716 0
74.848 2.5302 0
77.8137 4.36896 0
76.9871 4.76168 0
74.2687 0.526567 0
76.8057 5.32621 0
67.5744 0.0116413 0
67.5738 -0.00119871 0
67.5931 -0.00509743 0
67.5933 0.00984871 0
67.5853 -0.00431658 0
67.6094 -0.00400673 0
67.616 0.00164047 0
67.6172 0.0048952 0
67.6244 -0.00651065 0
67.6501 -0.00126777 0
67.6572 -0.000165381 0
67.665 -0.0107494 0
67.6976 -0.00279417 0
67.7091 -0.00301438 0
67.7195 -0.00610974 0
67.7386 -0.0130024 0
67.7703 -0.00288949 0
67.7811 -0.00555557 0
67.8055 -0.0155635 0
67.8469 0.00227532 0
67.861 0.00022664 0
67.9125 0.0016766 0
67.8804 -0.009375 0
67.9423 -0.00197839 0
68.0019 -0.0057075 0
67.9694 -0.00643302 0
68.0328 -0.00378714 0
68.0603 -0.00816256 0
68.0963 0.00927247 0
68.0495 0.00825393 0
68.1369 -0.00213464 0
68.1769 0.0205605 0
68.1374 0.0116119 0
68.2446 0.0289793 0
68.256 0.0233573 0
68.2772 0.016753 0
68.2223 0.0161267 0
68.292 0.0208268 0
68.3453 0.0181236 0
68.3058 0.0184229 0
68.3975 0.0514279 0
68.3954 0.0215077 0
68.4244 0.0335506 0
68.3832 0.0311375 0
68.4384 0.0523159 0
68.4948 0.0654647 0
68.5191 0.0419755 0
68.4858 0.0645099 0
68.5385 0.0780936 0
68.5432 0.0879122 0
68.5906 0.0488686 0
68.5725 0.0623481 0
68.6041 0.0831862 0
68.6357 0.120569 0
68.6353 0.058538 0
68.6531 0.0946222 0
68.672 0.12449 0
68.6649 0.0705428 0
68.6442 0.0881043 0
68.6993 0.133308 0
68.6968 0.129082 0
68.6865 0.0853108 0
68.7064 0.0600008 0
68.7159 0.117878 0
68.6485 0.0372609 0
68.737 0.136924 0
68.7674 0.150344 0
68.7462 0.13102 0
68.725 0.0810376 0
68.7665 0.143999 0
68.7694 0.128063 0
68.6991 0.0483632 0
68.7394 0.115861 0
68.7554 0.120172 0
68.7551 0.125922 0
68.7088 0.0356987 0
68.7235 0.0927254 0
68.7574 0.132539 0
68.7167 0.0737417 0
68.7454 0.118079 0
68.712 0.0992206 0
68.677 0.0782539 0
68.5935 0.0252728 0
68.6782 0.0756457 0
68.6925 0.0935576 0
68.5182 0.0126447 0
68.6562 0.0795089 0
68.6099 0.0568258 0
68.5927 0.0497262 0
68.5815 0.0467937 0
68.6023 0.0477913 0
68.5165 0.0162602 0
68.3585 0.0169239 0
68.4691 0.0158905 0
68.4808 0.00309989 0
68.4204 -0.00344451 0
68.4087 0.00789616 0
68.4522 -0.00580907 0
68.4057 -0.0358151 0
68.2403 -0.00822536 0
68.2474 -0.0233877 0
68.3315 -0.0518609 0
68.3674 -0.0547109 0
68.2793 -0.0299639 0
68.3373 -0.0666161 0
68.3205 -0.0792656 0
68.2101 -0.0418444 0
68.2401 -0.0572266 0
68.2974 -0.0942559 0
68.2795 -0.0819987 0
68.1666 -0.0347494 0
68.2904 -0.0938216 0
68.3249 -0.101038 0
68.3099 -0.0466201 0
68.2896 -0.0847333 0
68.3901 -0.087243 0
68.3804 -0.0732559 0
68.2119 -0.0288081 0
68.4228 -0.0863088 0
68.5554 -0.0336138 0
68.4189 -0.0248885 0
68.5714 -0.0333978 0
68.6338 -0.0294476 0
68.6865 0.0212397 0
68.5684 -0.0172894 0
68.7024 0.00244429 0
68.8659 0.0557607 0
68.8475 0.0236308 0
68.8639 0.0778412 0
69.0826 0.148849 0
69.2859 0.0386695 0
68.8269 0.0549154 0
69.1582 0.168812 0
69.2431 0.192384 0
69.1928 0.0417176 0
69.3357 0.208702 0
69.6123 0.343185 0
69.662 0.325483 0
69.726 0.100438 0
69.9093 0.408182 0
69.5219 0.106292 0
69.3874 0.231019 0
69.8166 0.398043 0
70.1206 0.518839 0
70.1713 0.561172 0
69.6397 -0.0180255 0
70.4402 0.696998 0
70.4805 0.68439 0
70.6638 0.681973 0
70.6836 0.328277 0
70.9644 0.36256 0
70.6414 0.733503 0
70.2694 0.179874 0
70.9404 0.846947 0
70.9468 0.854427 0
71.0585 0.803422 0
71.0035 0.244779 0
71.1827 0.900447 0
71.4815 1.13586 0
71.3674 0.44854 0
71.2318 0.450804 0
71.469 0.955379 0
71.7612 1.19672 0
71.0524 0.262588 0
71.8599 1.27226 0
71.9374 1.23575 0
71.7767 0.244304 0
72.2568 1.40654 0
72.3201 1.35324 0
72.4889 1.16331 0
72.1618 0.516615 0
72.0964 0.583823 0
72.2733 1.3098 0
71.9243 0.37724 0
72.6133 1.53419 0
72.7068 1.43342 0
72.7214 1.32157 0
72.3338 0.206809 0
73.0202 1.50424 0
73.0394 1.53837 0
72.8318 0.871194 0
73.2699 1.18768 0
72.9132 0.720492 0
73.1467 1.45761 0
72.7253 0.450256 0
73.4208 1.6397 0
73.4531 1.58007 0
72.781 0.367416 0
73.5661 1.44524 0
73.8652 1.5975 0
73.7192 1.59567 0
73.6557 0.389578 0
74.2204 1.62938 0
74.2755 1.72768 0
73.5 1.13281 0
74.1067 1.3206 0
73.6524 0.69613 0
74.5273 1.78434 0
73.9604 0.21755 0
74.5896 1.71855 0
74.6021 1.65114 0
73.6651 0.175082 0
74.4952 1.51817 0
74.9878 1.73648 0
75.1151 1.74193 0
74.6073 0.500874 0
75.2112 1.72031 0
75.289 1.83381 0
74.4407 1.15876 0
75.4785 1.2834 0
74.8987 0.491286 0
75.5102 1.84726 0
75.0076 0.183818 0
75.7192 1.79133 0
75.8674 1.78534 0
74.691 0.127187 0
75.7893 1.55504 0
76.3036 1.80261 0
76.6006 1.74828 0
75.4675 0.370998 0
76.4139 1.66816 0
76.8565 1.80572 0
75.9839 1.34771 0
77.0232 1.1141 0
75.7525 0.284722 0
76.6315 1.61523 0
75.9993 0.112082 0
77.3206 1.76117 0
77.4752 1.5507 0
75.6971 0.0996422 0
77.3847 1.11038 0
77.8142 1.26941 0
78.175 1.13165 0
76.6041 0.0438275 0
78.3805 0.936959 0
78.4979 0.744399 0
76.9003 -0.0247251 0
78.561 0.791161 0
78.0138 -0.0168415 0
76.8133 0.260569 0
76.5041 0.238561 0
78.7735 0.487497 0
78.7119 -0.105191 0
79.1074 -0.198584 0
76.4885 -0.00672321 0
78.6059 -0.649058 0
79.1354 -0.973899 0
76.7056 -0.0550943 0
78.4028 -0.667269 0
79.139 -1.54334 0
77.9921 -1.22355 0
76.8646 -0.429463 0
79.004 -1.88112 0
78.8788 -2.23006 0
77.7827 -0.616252 0
77.4728 -2.48061 0
75.8643 -2.14658 0
78.7156 -2.29459 0
76.008 -0.329905 0
78.5303 -3.13225 0
76.18 5.71612 0
76.6901 5.22283 0
72.9743 1.59622 0
76.1161 5.64034 0
74.5431 5.2636 0
75.4884 6.10793 0
73.4347 0.652326 0
74.8312 6.21695 0
74.0547 6.12052 0
72.5424 0.806249 0
74.0051 6.47633 0
78.4406 -3.47075 0
76.2199 -0.194349 0
78.2091 -3.77585 0
77.3083 -4.14798 0
76.7873 -3.59749 0
75.6146 -0.225544 0
77.386 -4.64036 0
73.2426 5.96232 0
76.7126 -5.55514 0
75.469 -1.1803 0
76.495 -5.38669 0
75.6856 -6.08895 0
71.7073 1.89586 0
75.4243 -5.95684 0
76.5877 -3.42057 0
75.9556 -5.43903 0
74.5665 -4.09508 0
73.8882 -0.730417 0
75.2565 -5.51251 0
74.6527 -5.76559 0
72.7586 6.22175 0
74.6798 -5.85111 0
74.5515 -0.385438 0
73.9371 -6.03377 0
73.4248 -6.5183 0
73.4261 -0.473824 0
72.6377 -6.57497 0
73.1339 -4.97133 0
71.9114 -0.5585 0
71.9226 -6.6409 0
72.1355 -3.86261 0
73.3313 -3.13027 0
72.4588 -5.81893 0
71.5881 -6.03857 0
73.5257 3.52589 0
71.1824 0.435534 0
73.1433 2.41986 0
72.3572 -0.0604187 0
71.171 -6.42081 0
72.5565 5.88319 0
71.0429 0.306336 0
72.0939 5.07288 0
70.5375 -6.35534 0
72.008 -1.4165 0
70.0434 -4.69953 0
71.9667 6.60759 0
70.188 1.59212 0
71.9425 6.50833 0
70.4607 5.54917 0
70.4641 0.320552 0
70.9426 5.78215 0
70.462 -4.9283 0
71.7397 -0.407079 0
69.9156 -6.47345 0
69.9708 -6.26342 0
71.1688 6.19148 0
69.8122 5.94499 0
70.0023 0.0284827 0
70.5539 6.13505 0
69.2121 3.85281 0
69.8925 1.77968 0
69.2117 -6.39693 0
70.2874 -0.88689 0
69.4869 -6.2924 0
68.8268 6.16495 0
68.7505 -5.92566 0
69.6613 -0.829022 0
69.1985 -2.60634 0
67.926 -5.63352 0
70.2336 -3.22893 0
67.7653 -5.43581 0
69.3467 -0.205479 0
67.0779 -5.20387 0
68.8618 2.11796 0
69.5181 0.331375 0
68.5304 5.26098 0
69.1366 0.0649767 0
68.3182 6.07736 0
68.2013 5.73093 0
68.8963 0.119468 0
67.6298 5.03094 0
68.7206 0.0877292 0
68.0894 -4.92645 0
69.346 -0.397635 0
69.035 4.58238 0
67.8598 0.108537 0
67.4026 4.71664 0
67.0093 -5.19871 0
69.4651 -0.171921 0
65.7349 -4.37739 0
67.8113 0.291623 0
66.284 -4.39243 0
68.2874 1.7341 0
67.7877 -0.150001 0
68.6652 -4.02316 0
67.7981 0.142465 0
65.8222 -4.12318 0
66.8953 4.25618 0
66.9372 -3.20458 0
67.8064 0.281589 0
66.0388 -3.5318 0
67.6915 2.17917 0
65.868 1.36919 0
66.5015 3.65904 0
67.5019 -0.621826 0
65.9763 -3.89467 0
67.7368 -0.24275 0
66.4331 4.90674 0
67.5029 -1.62196 0
67.788 0.105438 0
65.7081 -3.54288 0
66.3102 4.44297 0
67.7519 0.128111 0
66.183 3.46708 0
66.0197 3.40158 0
67.7046 -0.220634 0
65.42 3.02553 0
65.0823 -3.13486 0
67.768 0.277135 0
64.8099 -3.14871 0
66.5202 -1.38617 0
67.7548 0.241387 0
64.4665 -2.16164 0
65.4144 3.80589 0
67.6811 0.118299 0
66.3289 2.35843 0
64.8314 -1.91474 0
67.6258 0.105282 0
64.3313 -1.79766 0
64.5223 2.75611 0
67.6624 -0.0915588 0
64.7856 2.61644 0
65.0125 2.10484 0
67.7604 -0.0439124 0
64.4441 2.2622 0
65.1961 -1.10831 0
67.5957 -0.123061 0
64.6437 -1.02116 0
63.8091 -0.667878 0
66.9051 -0.64289 0
63.9875 -0.56767 0
66.6285 0.661488 0
67.6777 -0.0467136 0
66.0205 1.72442 0
64.3627 1.78346 0
67.5352 0.000376429 0
63.9019 1.15245 0
67.2254 -0.152696 0
67.7766 0.132105 0
63.867 -0.191958 0
64.2015 -0.0623721 0
67.6756 0.0527898 0
65.8455 0.183874 0
64.4861 0.376329 0
67.7168 0.0663358 0
67.0537 -4.32527 0
67.8491 0.222671 0
67.8129 -0.159389 0
67.7418 5.16313 0
68.3381 -5.89066 0
70.9526 -0.778196 0
69.8294 0.759838 0
70.2997 6.40852 0
67.7016 -0.183754 0
65.0445 3.63691 0
64.5452 -2.15566 0
67.8075 0.214612 0
67.7655 0.143163 0
67.3199 -2.67692 0
67.8276 0.291728 0
67.7355 -0.220069 0
67.6641 -0.00468122 0
64.2784 1.54292 0
69.0884 0.302453 0
68.2195 1.01652 0
68.5425 -0.884681 0
69.7131 -0.545752 0
73.4453 -1.05947 0
73.0285 -6.45476 0
74.2905 6.1635 0
73.1705 0.377505 0
67.5488 1.11818 0
68.808 5.92628 0
68.0341 -5.38429 0
68.8174 -1.63739 0
66.7332 -1.03285 0
65.0282 -0.180828 0
66.3826 4.35518 0
67.8543 1.25804 0
67.7089 -1.21598 0
65.1478 -3.54669 0
77.9748 -4.24137 0
75.3649 -0.564974 0
75.0727 0.68853 0
78.1604 3.74829 0
67.8147 -0.319042 0
67.827 0.0501547 0
67.8637 -0.166094 0
68.8185 0.476389 0
71.6169 0.588013 0
71.203 3.23431 0
70.3123 -1.61118 0
72.4256 -1.42828 0
70.3717 3.79556 0
72.3503 6.2592 0
71.6024 -6.57961 0
71.2237 -1.556 0
73.9834 1.3769 0
74.7487 4.11722 0
73.774 -2.32126 0
74.5764 -0.0305545 0
76.7386 -0.117114 0
79.147 -0.461506 0
79.1227 0.087473 0
76.3794 0.0208799 0
76.0134 6.47114e-05 0
77.5409 1.59739 0
77.9755 -1.53089 0
76.7805 -0.0840537 0
68.8001 -0.947906 0
68.3871 -0.4011 0
68.2523 0.824037 0
68.9899 0.610351 0
68.0773 0.830519 0
67.8101 -0.282095 0
67.8071 0.138364 0
68.0006 -0.749762 0
76.1884 0.836525 0
77.2615 1.63235 0
76.3672 -0.896334 0
76.3882 -0.11439 0
65.9156 -0.728133 0
67.6877 0.108305 0
67.2797 -0.263608 0
67.7462 0.252128 0
67.7548 -0.235358 0
67.7174 0.484479 0
75.9788 1.76447 0
75.2433 0.295616 0
76.0076 -0.0027664 0
75.8379 -2.45568 0
70.7234 -0.0318263 0
70.0693 -2.24863 0
70.8126 1.45711 0
69.9911 0.352914 0
67.5272 2.96415 0
67.0474 5.43806 0
66.9923 -4.75014 0
67.9709 -2.31675 0
68.4945 -1.41243 0
67.3009 -1.53456 0
67.5739 3.4688 0
67.9492 1.44636 0
76.8729 -0.127536 0
76.8577 0.045457 0
76.5471 0.0190655 0
77.2817 0.754223 0
68.9474 -4.16203 0
69.7903 -4.07943 0
69.5436 3.57969 0
69.7499 6.37417 0
68.5317 -3.02473 0
69.6062 -1.80146 0
69.3458 2.39772 0
68.9687 1.02582 0
74.916 1.8266 0
74.3199 0.245668 0
74.7882 -0.0163614 0
73.8978 -2.15919 0
67.1061 0.670964 0
67.7354 -0.0233517 0
76.0996 -0.223774 0
76.9722 -1.04028 0
76.2843 0.609528 0
75.458 0.0962598 0
68.6967 -0.627075 0
68.1982 -0.910233 0
68.8674 1.1619 0
68.1405 0.448246 0
67.8078 0.168555 0
68.0734 -0.322979 0
67.8855 -0.166694 0
67.8138 -0.169283 0
64.571 1.26235 0
66.7623 1.02372 0
74.3531 -2.59492 0
76.8566 -5.11993 0
77.2909 4.6981 0
74.0861 1.92516 0
66.7002 -1.6332 0
65.0619 -2.17167 0
73.2432 0.294514 0
73.5554 1.55675 0
71.9525 0.157047 0
72.9532 1.57393 0
73.012 -1.53313 0
73.1273 -0.25546 0
72.1449 -1.0113 0
72.2638 -0.0161714 0
75.0676 -0.531211 0
74.9893 -1.43289 0
74.8805 0.70417 0
74.5834 0.0086754 0
67.7025 -0.177182 0
67.5182 0.17509 0
66.3072 0.299978 0
64.7441 0.599807 0
67.6452 0.0583413 0
67.7311 0.165248 0
67.1668 0.186881 0
67.1054 -0.526173 0
78.9404 -1.91128 0
76.3486 -1.41453 0
77.2277 1.9242 0
79.1626 1.28966 0
67.9695 -0.000574197 0
68.0367 -0.11554 0
67.8569 -0.0523749 0
68.2544 0.164701 0
73.7977 -0.42435 0
73.6207 -1.06734 0
74.0746 0.624175 0
73.4615 0.204833 0
71.5155 0.328261 0
71.7268 1.07488 0
71.6706 -0.788111 0
71.6568 -0.217369 0
68.3843 -0.623117 0
69.0318 -1.52594 0
68.586 1.04514 0
68.3226 0.836348 0
68.7028 2.0474 0
67.3583 1.22086 0
67.8911 -1.30546 0
68.3974 -1.9835 0
77.2392 -0.161905 0
77.7179 1.22136 0
78.4625 -1.07436 0
77.9795 0.27906 0
67.4971 -0.767433 0
67.5975 -0.940827 0
67.6743 0.636892 0
67.1188 0.872788 0
71.2785 1.0546 0
70.7874 0.293755 0
71.0444 -0.14209 0
71.2359 -0.61218 0
72.9218 3.40217 0
74.3277 5.52655 0
73.8513 -6.4743 0
73.7259 -2.72726 0
65.4921 -2.57786 0
67.2753 -2.56972 0
72.7597 -2.48696 0
73.2199 -0.921331 0
72.1008 0.388982 0
74.2658 2.62035 0
65.2526 3.46167 0
66.5959 1.91335 0
72.6377 -0.094022 0
72.7282 -0.958581 0
73.0276 0.684338 0
72.9003 0.191403 0
75.6775 -0.302518 0
75.5529 -1.26204 0
75.9975 1.79899 0
75.2463 0.253526 0
71.6622 1.15234 0
70.4838 0.287394 0
71.2761 -0.274998 0
71.5576 -2.51115 0
76.1202 0.765788 0
76.0951 1.6101 0
76.8468 -2.22117 0
77.2211 -0.538849 0
70.8379 -3.03491 0
71.7154 -1.48227 0
71.1392 2.16536 0
72.7854 4.66548 0
70.1686 0.501068 0
70.074 0.0845178 0
70.7521 -0.140911 0
70.2649 -0.4451 0
71.8317 -0.284588 0
72.0882 -0.00892773 0
72.2548 0.208724 0
71.773 0.887806 0
69.5001 0.352515 0
69.2994 0.902448 0
69.4867 -0.838405 0
70.1208 -0.271629 0
70.4264 2.23377 0
69.3521 1.39392 0
68.7124 -2.10557 0
68.056 -2.01157 0
76.7822 -0.29493 0
76.6176 -0.17173 0
76.6899 0.298612 0
77.4204 0.420397 0
69.1115 2.94246 0
69.6546 1.96689 0
69.0572 -0.554937 0
68.9702 -0.20525 0
68.855 0.170043 0
69.3133 0.621916 0
66.4125 -0.63845 0
67.3266 -0.938183 0
78.5043 -2.85712 0
76.4608 -1.65818 0
75.9453 3.17958 0
78.511 3.14321 0
67.7554 -0.3489 0
67.7582 0.170402 0
67.7997 -0.213952 0
67.8728 0.30736 0
68.1751 0.0365737 0
68.1945 0.422614 0
68.3508 -0.230124 0
68.5066 -0.00914243 0
65.6148 -0.228259 0
63.8529 0.100884 0
72.9379 2.64555 0
75.9733 2.58018 0
74.9755 -2.09517 0
75.4041 -4.04584 0
67.3607 1.38351 0
66.9256 0.746808 0
67.7691 0.0315612 0
67.5156 -0.00529695 0
69.4824 5.16743 0
67.9008 2.99621 0
69.265 -3.36124 0
68.3887 -6.10479 0
67.1684 0.539765 0
67.6198 -0.0475415 0
74.8941 0.919909 0
75.1485 1.8011 0
74.5847 -2.29128 0
75.0207 -0.467595 0
71.0883 -0.179243 0
71.5053 -0.118909 0
71.5304 0.143874 0
71.0128 0.752645 0
79.1438 -0.0130803 0
78.0616 1.12152 0
77.7145 -0.013482 0
78.8967 0.174033 0
67.3023 0.0629604 0