# vtk DataFile Version 3.0
Unstructured Grid for Triangles
ASCII
DATASET UNSTRUCTURED_GRID
POINTS 29612 DOUBLE
-0.000272397 1.23686e-05 0
-0.000295789 9.5838e-06 0
-0.000277865 -3.1235e-06 0
0.002024 0.0005 0
0.00203975 0.00049875 0
0.00205 0.0005 0
0.00203975 -0.00049875 0
0.002024 -0.0005 0
0.00205 -0.0005 0
0.0020295 0.0004975 0
0.0020295 -0.0004975 0
0.00201925 0.00049625 0
0.00201925 -0.00049625 0
-0.000529747 -0.000479887 0
-0.00055 -0.0005 0
-0.000524 -0.0005 0
-0.000505983 -0.000484325 0
-0.000498 -0.0005 0
-0.000472 -0.0005 0
-0.000483864 -0.000487761 0
-0.000446 -0.0005 0
-0.000459 -0.000484239 0
-0.000429453 -0.000424878 0
-0.000447486 -0.000420717 0
-0.000441829 -0.000436609 0
-0.000512578 -0.000462101 0
-0.000493078 -0.000453594 0
-0.00050706 -0.000439006 0
-0.000419243 -0.000477545 0
-0.000440307 -0.000471837 0
-0.00043691 -0.000486724 0
-0.000516129 -0.000420948 0
-0.000495355 -0.000415432 0
-0.000511646 -0.00040128 0
-0.000394697 -0.000481197 0
-0.000406302 -0.000455143 0
-0.000537257 -0.000388197 0
-0.000531099 -0.000407297 0
-0.000523982 -0.000388328 0
-0.000370063 -0.000472956 0
-0.000368 -0.0005 0
-0.00035308 -0.000485302 0
-0.0005072 -0.00037867 0
-0.000485506 -0.000383975 0
-0.000490949 -0.000359622 0
-0.000337127 -0.000484331 0
-0.000316 -0.0005 0
-0.000326495 -0.00047415 0
-0.00055 -0.00035 0
-0.000531201 -0.000370361 0
-0.000528367 -0.000346817 0
-0.000363898 -0.000448809 0
-0.000383315 -0.000460336 0
-3.26269e-05 -0.000415503 0
-5.99662e-05 -0.000409556 0
-5.46944e-05 -0.000429488 0
-0.000529747 0.000479887 0
-0.00055 0.0005 0
-0.00055 0.000475 0
-0.00055 0.00045 0
-0.000534834 0.000429171 0
-0.000526943 0.000442611 0
-0.000534026 0.000460176 0
-0.000531099 0.000407297 0
-0.000511672 0.000401178 0
-0.000516129 0.000420948 0
-0.000524 0.0005 0
-0.000505983 0.000484325 0
-0.000531201 0.000370361 0
-0.0005072 0.00037867 0
-0.000523982 0.000388328 0
-0.00048341 0.000469132 0
-0.000483679 0.000487539 0
-0.000528367 0.000346817 0
-0.00055 0.000325 0
-0.000525657 0.000328474 0
-0.000498 0.0005 0
-0.000530382 0.0003125 0
-0.000419243 0.000477545 0
-0.000440015 0.00047335 0
-0.000425917 0.000463678 0
-0.000435138 0.000262661 0
-0.000414982 0.000274462 0
-0.000435654 0.000285217 0
-0.000459 0.000484239 0
-0.000436852 0.000487027 0
-0.000446 0.0005 0
-0.000533308 0.000292503 0
-0.00055 0.000275 0
-0.000523377 0.000276953 0
-0.000425282 0.000446352 0
-0.000409368 0.000435728 0
-0.000406302 0.000455143 0
0.002009 0.000495 0
0.001998 0.0005 0
0.00199875 0.00049375 0
0.0019885 0.0004925 0
0.001972 0.0005 0
0.00197825 0.00049125 0
0.001968 0.00049 0
0.00195775 0.00048875 0
0.001946 0.0005 0
0.0019475 0.0004875 0
0.00193725 0.00048625 0
0.00192 0.0005 0
0.001927 0.000485 0
0.00191675 0.00048375 0
0.0019065 0.0004825 0
0.001894 0.0005 0
0.00189625 0.00048125 0
0.001886 0.00048 0
0.001868 0.0005 0
0.00187575 0.00047875 0
0.0018655 0.0004775 0
0.00185515 0.00048575 0
0.001842 0.0005 0
0.001845 0.000475 0
0.00185525 0.00047625 0
0.00182564 0.0004829 0
0.001816 0.0005 0
0.0018245 0.0004725 0
0.00183475 0.00047375 0
0.00181425 0.00047125 0
0.00180295 0.000482657 0
0.00179 0.0005 0
0.00179375 0.00046875 0
0.001804 0.00047 0
0.00178168 0.000480619 0
0.001764 0.0005 0
0.00177325 0.00046625 0
0.0017835 0.0004675 0
0.00176428 0.000476631 0
0.001763 0.000465 0
0.001738 0.0005 0
0.001751 0.000484164 0
0.00175275 0.00046375 0
0.00174025 0.000475632 0
0.001712 0.0005 0
0.00172615 0.000478449 0
0.001722 0.00046 0
0.00173225 0.00046125 0
0.0017015 0.0004575 0
0.00171243 0.00047381 0
0.00169554 0.000479999 0
0.001686 0.0005 0
0.00167507 0.000479751 0
0.00168498 0.000464861 0
0.00166 0.0005 0
0.0016558 0.000471459 0
0.00167135 0.000462887 0
0.001681 0.000455 0
0.0016605 0.0004525 0
0.00167075 0.00045375 0
0.00164059 0.000461599 0
0.0016394 0.000479551 0
0.00162881 0.00046615 0
0.00162975 0.00044875 0
0.00165025 0.00045125 0
0.00164 0.00045 0
0.00161754 0.000458641 0
0.00161722 0.000478101 0
0.00159956 0.000458294 0
0.00160925 0.00044625 0
0.0016195 0.0004475 0
0.00157667 0.000460322 0
0.00158875 0.00044375 0
0.00159194 0.000480155 0
0.001599 0.000445 0
0.0015785 0.0004425 0
0.00155808 0.000456757 0
0.00155647 0.000476701 0
0.00154059 0.000466642 0
0.00153756 0.000450083 0
0.00154839 0.000450446 0
0.00156825 0.00044125 0
0.00151954 0.000480508 0
0.00154052 0.00048477 0
0.00153 0.0005 0
0.00154775 0.00043875 0
0.00152142 0.000456625 0
0.00152821 0.000445753 0
0.0015375 0.0004375 0
0.001504 0.0005 0
0.00149644 0.000485168 0
0.00151787 0.000443178 0
0.00152725 0.00043625 0
0.00150675 0.00043375 0
0.001517 0.000435 0
0.00148119 0.000450887 0
0.00148072 0.000475756 0
0.00146584 0.000463516 0
0.00150008 0.00046396 0
0.00149351 0.00044543 0
0.0015061 0.000446252 0
0.001476 0.00043 0
0.00148625 0.00043125 0
0.00146492 0.000482975 0
0.00144888 0.000473562 0
0.00146676 0.000444259 0
0.00145255 0.000453656 0
0.00145652 0.000438669 0
0.00141401 0.000479821 0
0.001426 0.0005 0
0.0014 0.0005 0
0.00144374 0.000438862 0
0.0014555 0.0004275 0
0.001435 0.000425 0
0.00144525 0.00042625 0
0.00142746 0.000438121 0
0.00141288 0.000443191 0
0.00141707 0.000432778 0
0.0013921 0.000438992 0
0.00140355 0.00045932 0
0.00138302 0.00045922 0
0.00142912 0.000458869 0
0.00140592 0.000430037 0
0.0014145 0.0004225 0
0.00136458 0.00045869 0
0.00137106 0.00044063 0
0.001394 0.00042 0
0.00138259 0.000428915 0
0.00137484 0.000477094 0
0.00139166 0.000478902 0
0.0013586 0.000478984 0
0.00133449 0.000478649 0
0.00134717 0.000461848 0
0.00137256 0.000425134 0
0.00135323 0.000424541 0
0.00136325 0.00041625 0
0.00136122 0.00042876 0
0.00131206 0.000447284 0
0.00133168 0.000456738 0
0.00131773 0.000465243 0
0.00134756 0.000440343 0
0.00132747 0.000436463 0
0.00133483 0.000426786 0
0.00131081 0.00041867 0
0.00132382 0.000422815 0
0.00131507 0.00043122 0
0.00131059 0.000480123 0
0.0013325 0.0004125 0
0.0012915 0.0004075 0
0.0012982 0.000418199 0
0.00128915 0.000426216 0
0.00126366 0.000447574 0
0.00127331 0.000430908 0
0.00128781 0.000444872 0
0.00125336 0.000428376 0
0.00130218 0.000431077 0
0.00127894 0.000416344 0
0.00124774 0.000469608 0
0.00127668 0.000464148 0
0.00126591 0.00048331 0
0.00126722 0.000418415 0
0.00125768 0.000411931 0
0.00124326 0.000413546 0
0.0012505 0.0004025 0
0.00122408 0.000450118 0
0.00120276 0.000447432 0
0.0012139 0.000432235 0
0.00124336 0.000444132 0
0.00123056 0.000427595 0
0.00122977 0.000409049 0
0.0012185 0.000469217 0
0.00122676 0.000485947 0
0.00120525 0.000486094 0
0.00121479 0.000413153 0
0.00119547 0.000424221 0
0.00120249 0.000407448 0
0.00119925 0.00039625 0
0.00119346 0.000406114 0
0.00117479 0.000447279 0
0.00114726 0.000445259 0
0.0011571 0.000427814 0
0.00119443 0.000466611 0
0.00117447 0.000421596 0
0.00118421 0.00040752 0
0.00117409 0.000404437 0
0.00116775 0.000470073 0
0.001179 0.0004855 0
0.00115473 0.000484802 0
0.0011685 0.0003925 0
0.00117875 0.00039375 0
0.00115454 0.000400551 0
0.001148 0.00039 0
0.00115825 0.00039125 0
0.00111703 0.000423398 0
0.00113786 0.000426731 0
0.00112589 0.000443871 0
0.00113234 0.000406671 0
0.00114754 0.000413371 0
0.001106 0.000442326 0
0.00109703 0.000424261 0
0.0011275 0.0003875 0
0.00113775 0.00038875 0
0.00110211 0.000480875 0
0.00108244 0.000471951 0
0.00109312 0.000458413 0
0.00111755 0.000399116 0
0.0010944 0.000392972 0
0.00110415 0.000405876 0
0.00108839 0.000407536 0
0.00106472 0.000476905 0
0.00107274 0.000457868 0
0.00108011 0.000392415 0
0.00106885 0.000404365 0
0.00106625 0.000388708 0
0.00105286 0.000419254 0
0.00105055 0.000395469 0
0.00104215 0.000439764 0
0.00106346 0.000440629 0
0.00100945 0.000451249 0
0.00102825 0.00045614 0
0.00101189 0.000468452 0
0.00107625 0.00038125 0
0.00105575 0.00037875 0
0.001066 0.00038 0
0.00103352 0.000476905 0
0.00101803 0.00048465 0
0.00103685 0.000389398 0
0.0010245 0.00038825 0
0.00103525 0.00037625 0
0.00101092 0.000399779 0
0.00101267 0.000382619 0
0.00101382 0.00042025 0
0.00103187 0.000405286 0
0.00103359 0.000424605 0
0.000987383 0.00045447 0
0.000999411 0.000435161 0
0.0009744 0.000433145 0
0.0010045 0.0003725 0
0.00101475 0.00037375 0
0.000970845 0.000465215 0
0.000952614 0.000467664 0
0.000961768 0.000449944 0
0.00099729 0.000387704 0
0.000978901 0.00039598 0
0.000985823 0.000381492 0
0.000962289 0.000393709 0
0.000974259 0.000381279 0
0.00097375 0.00036875 0
0.000963045 0.000376631 0
0.000958 0.0005 0
0.000932 0.0005 0
0.000947542 0.00048457 0
0.000949675 0.000385245 0
0.000936214 0.000389472 0
0.000940006 0.000374906 0
0.000966411 0.000412573 0
0.000944241 0.000407079 0
0.000903569 0.000424993 0
0.000921701 0.000402409 0
0.000927439 0.000427744 0
0.000889795 0.000409067 0
0.000903071 0.00040248 0
0.000925447 0.000377721 0
0.00093275 0.00036375 0
0.000907708 0.000387127 0
0.000911303 0.000370839 0
0.000911933 0.000455145 0
0.000930678 0.000473279 0
0.000911886 0.000482603 0
0.000887724 0.000388076 0
0.000899595 0.000375116 0
0.000902 0.00036 0
0.000889241 0.00036954 0
0.000836977 0.000459472 0
0.000836223 0.000483578 0
0.000820467 0.000474142 0
0.000871227 0.000403557 0
0.000861 0.000355 0
0.000868368 0.000365714 0
0.00085484 0.00036588 0
0.000847735 0.000402845 0
0.000823121 0.000421599 0
0.000826582 0.000398147 0
0.000846943 0.00042454 0
0.000838832 0.000378613 0
0.000835569 0.000363808 0
0.000844098 0.00036291 0
0.00085075 0.00035375 0
0.000851465 0.000477164 0
0.00083025 0.00035125 0
0.000822824 0.000368659 0
0.00081446 0.000357362 0
0.000805884 0.000371794 0
0.000753471 0.000477524 0
0.000738313 0.000473927 0
0.000739102 0.000461526 0
0.00079826 0.000358588 0
0.000788607 0.000376287 0
0.000781733 0.000357987 0
0.000816783 0.000384471 0
0.000807975 0.000404095 0
0.000752138 0.000404775 0
0.000767682 0.000417043 0
0.000749617 0.000421803 0
0.000752903 0.000384008 0
0.000738293 0.000393136 0
0.000772614 0.000394048 0
0.00076863 0.000371878 0
0.000765995 0.000354121 0
0.000779 0.000345 0
0.00071811 0.000453059 0
0.000738069 0.000437967 0
0.000752085 0.000365972 0
0.000728123 0.000374583 0
0.000741845 0.000354664 0
[...]
CELL_DATA 58684
VECTORS velocity DOUBLE
65.4115 0.20621 0
67.5831 -0.00015687 0
67.4528 -1.63371e-05 0
67.5959 -0.00466402 0
67.4634 0.00547406 0
67.599 -0.00396279 0
67.4668 0.00356625 0
67.6886 -0.0238282 0
67.6463 -0.0706988 0
67.6466 -0.0198415 0
67.6785 -0.0230415 0
67.6922 -0.499212 0
67.6347 -0.329857 0
67.7235 -0.147406 0
67.6316 -0.573014 0
67.7877 -0.171882 0
67.714 -0.366128 0
67.9113 -0.129994 0
67.7159 -0.862289 0
68.2427 -0.0920404 0
67.8001 -0.350434 0
67.9231 -0.312267 0
72.8466 -1.38625 0
67.7455 0.0380753 0
67.6745 0.193368 0
67.7505 0.0882579 0
67.6816 0.463681 0
67.6483 0.0695823 0
67.7353 0.612374 0
67.6698 0.132751 0
67.8127 0.459847 0
67.626 0.0816142 0
67.6443 0.457628 0
67.7611 0.181404 0
67.7966 1.12433 0
67.692 0.0904102 0
67.8956 0.531665 0
67.7848 0.348261 0
67.609 0.00169925 0
67.6173 -0.000796239 0
67.627 -0.0101026 0
67.6276 -0.0032905 0
67.6402 -0.00166292 0
67.6498 -0.0102291 0
67.6492 -0.0105901 0
67.6511 -0.00518826 0
67.6608 -0.00191414 0
67.6658 -0.0128739 0
67.6646 -0.00791599 0
67.6759 -0.00287699 0
67.6832 -0.0135837 0
67.683 -0.0125704 0
67.6844 -0.00636193 0
67.6947 -0.00192465 0
67.7025 -0.015948 0
67.7016 -0.0103546 0
67.7164 -0.0022522 0
67.7307 -0.0186224 0
67.7326 -0.0151076 0
67.7364 -0.00652031 0
67.7558 0.0011584 0
67.7573 -0.0144225 0
67.7755 -0.0035145 0
67.7931 0.00282307 0
67.801 -0.0105288 0
67.8073 -0.000997645 0
67.8227 0.0019158 0
67.8263 0.00381461 0
67.8374 0.00563127 0
67.8501 0.00844144 0
67.8582 0.00484303 0
67.8644 0.0137202 0
67.8736 0.0154478 0
67.8824 0.014577 0
67.8915 0.0059851 0
67.9029 0.0183964 0
67.9023 0.00906089 0
67.9179 0.00779169 0
67.928 0.026615 0
67.9492 0.0304358 0
67.9348 0.0277234 0
67.9301 0.00640251 0
67.9342 0.020452 0
67.9542 0.0402312 0
67.923 0.02588 0
67.9462 0.0459964 0
67.961 0.0551591 0
67.961 0.0568674 0
67.9284 0.0470883 0
67.9279 0.059802 0
67.9521 0.0521645 0
67.9366 0.0665032 0
67.8826 0.0486518 0
67.894 0.048414 0
67.9233 0.0712071 0
67.8608 0.0635785 0
67.8446 0.0530941 0
67.8899 0.0664348 0
67.8558 0.0771134 0
67.7994 0.0562757 0
67.7897 0.0600273 0
67.8351 0.059652 0
67.7606 0.0123002 0
67.8076 0.0740975 0
67.7686 0.0666482 0
67.801 0.0685849 0
67.7422 0.0201448 0
67.784 0.0753644 0
67.7745 0.0673572 0
67.7401 0.0266474 0
67.7338 0.0280309 0
67.7411 0.0424997 0
67.7482 0.0320364 0
67.7439 0.00704737 0
67.7796 0.0178031 0
67.7587 0.00920731 0
67.8497 0.00779399 0
67.7581 0.017795 0
67.7804 -0.0050166 0
67.8553 -0.0150498 0
67.9404 -0.052405 0
67.8571 -0.0274938 0
67.8632 -0.0397422 0
68.0328 -0.0657432 0
67.9585 -0.0891447 0
67.9906 -0.0290913 0
67.9927 -0.0795448 0
68.1997 -0.0358245 0
68.0449 -0.117228 0
68.1245 -0.174045 0
68.4192 -0.12374 0
68.2734 -0.159578 0
68.3123 -0.0752989 0
68.4185 -0.241833 0
68.3741 -0.0596933 0
68.2992 -0.229471 0
68.5901 -0.304299 0
68.7623 -0.223844 0
68.8434 -0.300844 0
68.6234 -0.265958 0
68.6885 -0.28589 0
68.7599 -0.157049 0
68.8777 -0.363846 0
68.9595 -0.39376 0
69.2404 -0.295834 0
68.958 -0.207008 0
68.981 -0.352604 0
69.0688 -0.428789 0
69.1133 -0.0817373 0
69.3571 -0.472928 0
69.3727 -0.507083 0
69.6401 -0.317922 0
69.3934 -0.293793 0
69.4623 -0.434644 0
69.5376 -0.532138 0
69.4849 -0.0876872 0
69.5774 -0.598921 0
69.7514 -0.62385 0
69.8817 -0.447273 0
69.8177 -0.515562 0
70.0136 -0.457815 0
69.8871 -0.636287 0
69.9942 -0.162568 0
69.9163 -0.597061 0
70.1262 -0.584838 0
70.1282 -0.183162 0
70.2805 -0.661535 0
70.3469 -0.587805 0
70.3297 -0.366744 0
70.4403 -0.258611 0
70.2963 -0.672249 0
70.3843 -0.721026 0
70.3938 -0.128957 0
70.5202 -0.670914 0
70.6127 -0.671936 0
70.455 -0.493727 0
70.5965 -0.288356 0
70.6498 -0.357885 0
70.6874 -0.744384 0
70.7009 -0.21653 0
70.7913 -0.658157 0
70.8264 -0.601767 0
70.8701 -0.69935 0
70.7388 -0.00859723 0
71.0261 -0.632637 0
70.8203 -0.512152 0
70.9935 -0.395533 0
71.0892 -0.430956 0
71.1067 -0.673672 0
71.1823 -0.64816 0
70.9168 -0.14418 0
71.2212 -0.584239 0
71.2604 -0.65871 0
71.2719 -0.63677 0
71.3363 -0.119022 0
71.2334 -0.480434 0
71.5048 -0.638594 0
71.5103 -0.458169 0
71.4102 -0.389561 0
71.5416 -0.630614 0
71.5559 -0.643363 0
71.3226 -0.112911 0
71.6726 -0.654013 0
71.7153 -0.610997 0
71.9483 -0.098652 0
71.8169 -0.626896 0
71.6323 -0.468711 0
71.9572 -0.39211 0
72.0518 -0.499477 0
71.895 -0.565686 0
71.9369 -0.651195 0
72.0369 -0.252881 0
72.1415 -0.618213 0
72.0909 -0.708779 0
72.3529 -0.716819 0
72.438 0.00675833 0
72.3183 -0.611851 0
72.3731 -0.748615 0
72.2386 -0.198432 0
72.4535 -0.790775 0
72.7286 -0.475104 0
72.5252 -0.834098 0
73.131 -0.279187 0
72.7998 -0.759403 0
72.7306 -0.877591 0
72.9354 -0.170715 0
72.9531 -0.937327 0
73.2977 -1.00108 0
73.1691 -0.842878 0
73.3705 -0.518657 0
73.3147 -1.17993 0
73.7537 -0.505608 0
74.3325 -0.0919964 0
73.3114 -0.925353 0
73.5253 -1.21568 0
73.6981 -1.33847 0
74.3147 -0.481062 0
74.0638 -1.24175 0
74.3131 -1.41528 0
74.6804 -0.18042 0
74.647 -1.48954 0
74.3882 -1.60711 0
74.4556 -1.1956 0
74.9081 -0.618828 0
75.0474 -0.751939 0
74.709 -1.75212 0
75.523 0.000381619 0
74.9174 -1.92961 0
75.1822 -1.88056 0
75.086 -1.98877 0
75.8785 -0.509222 0
75.563 -1.70827 0
75.8691 -1.81878 0
76.0418 -0.00375751 0
75.996 -2.20492 0
76.4769 -1.99677 0
76.0535 -1.30918 0
76.0946 -0.61083 0
76.3285 -2.21283 0
76.3076 -0.754088 0
76.4473 -0.0801779 0
76.4316 -1.57401 0
76.755 -2.115 0
77.0618 -2.02641 0
76.6141 -0.309259 0
77.2532 -1.52932 0
77.1952 -1.90966 0
76.6336 -0.112196 0
77.4048 -1.97398 0
77.7162 -1.78913 0
77.5324 -0.91362 0
76.5959 0.000660528 0
77.9745 -1.48743 0
77.3392 -0.273229 0
77.6258 -0.206065 0
77.9138 -1.23312 0
77.7238 -0.779632 0
78.4615 -0.926517 0
76.7767 0.0935707 0
78.3898 -1.10757 0
78.0946 -0.287368 0
78.6091 -0.271941 0
76.6742 0.022766 0
78.6259 0.534008 0
78.4158 0.751027 0
75.78 0.114539 0
78.7962 0.152533 0
78.7902 0.669606 0
76.8001 0.900836 0
76.5466 0.38131 0
77.8652 0.503986 0
78.6882 1.18532 0
76.012 0.211626 0
78.2181 1.93983 0
78.5794 1.41401 0
78.5627 1.60968 0
75.3662 0.925391 0
77.3073 2.04526 0
78.0926 2.25126 0
75.4115 0.148059 0
77.9179 2.66372 0
77.8753 2.50752 0
76.8862 3.62497 0
73.6656 0.236527 0
77.6333 3.45985 0
76.2954 2.40182 0
74.9676 1.01575 0
74.6634 1.97289 0
77.4342 3.75791 0
76.6537 4.07871 0
74.081 0.386987 0
76.4549 4.64965 0
67.4769 -0.00241267 0
67.4821 0.000638996 0
67.4887 0.0085005 0
67.4894 0.00212795 0
67.501 0.00171057 0
67.5082 0.00909799 0
67.507 0.00782425 0
67.5097 0.00318791 0
67.5175 0.00209111 0
67.5213 0.0114019 0
67.5197 0.00621759 0
67.5295 0.00286952 0
67.5349 0.0118324 0
67.5343 0.0107428 0
67.5355 0.00595301 0
67.5454 0.00190315 0
67.5516 0.014257 0
67.5512 0.00933486 0
67.5655 0.0022488 0
67.5777 0.0169283 0
67.5799 0.0143445 0
67.5978 0.0186914 0
67.5835 0.00580892 0
67.6115 0.00910213 0
67.6434 0.0129294 0
67.6208 0.00413093 0
67.653 0.00216851 0
67.668 -0.000696016 0
67.6781 0.00338143 0
67.6526 0.00387462 0
67.6963 -0.00619172 0
67.7066 -0.0036489 0
67.6883 0.00140788 0
67.734 -0.0085902 0
67.7401 -0.0103336 0
67.7478 -0.00904322 0
67.7221 -0.00325776 0
67.7562 -0.012879 0
67.7809 -0.0148908 0
67.7568 -0.00518241 0
67.8072 -0.01629 0
67.7958 -0.0137158 0
67.8168 -0.0207233 0
67.7878 -0.0105108 0
67.8236 -0.0257751 0
67.8421 -0.0369721 0
67.8101 -0.0140743 0
67.8296 -0.0283862 0
67.8451 -0.0330983 0
67.8464 -0.0351681 0
67.8063 -0.0191881 0
67.8292 -0.0264593 0
67.8367 -0.033589 0
67.8453 -0.0364952 0
67.7902 -0.0166381 0
67.8288 -0.0405331 0
67.8316 -0.0347859 0
67.7686 -0.0149078 0
67.7802 -0.0207201 0
67.8138 -0.0309817 0
67.8088 -0.0214294 0
67.7587 -0.0198733 0
67.7559 -0.016989 0
67.776 -0.0133495 0
67.785 -0.0114984 0
67.8017 -0.0158432 0
67.8053 -0.00106433 0
67.7855 -0.00541856 0
67.7539 -0.00899156 0
67.8007 0.0143581 0
67.8029 0.00796353 0
67.8151 0.0162769 0
67.7778 0.0146787 0
67.817 0.0376093 0
67.8399 0.0479946 0
67.7749 0.0067635 0
67.8352 0.0374394 0
67.8971 0.0801634 0
67.8555 0.031617 0
67.9193 0.065664 0
68.0018 0.123453 0
67.9649 0.0902779 0
68.085 0.0411682 0
68.0476 0.125366 0
68.093 0.144528 0
68.1539 0.0525583 0
68.1711 0.178579 0
68.1068 0.134355 0
68.2905 0.15896 0
68.1733 0.101455 0
68.308 0.230312 0
68.5463 0.307272 0
68.5592 0.0751784 0
68.4639 0.216974 0
68.6639 0.331455 0
68.6405 0.236721 0
68.4963 0.090631 0
68.7386 0.298306 0
68.8493 0.3329 0
68.8566 0.0819628 0
69.007 0.155792 0
69.0155 0.29216 0
69.0473 0.387957 0
68.8968 0.227451 0
69.1755 0.369958 0
69.2593 0.401252 0
69.4232 0.130658 0
69.2684 0.248674 0
69.445 0.436623 0
69.467 0.384349 0
69.2263 0.141841 0
69.527 0.413265 0
69.6757 0.419945 0
69.6914 0.172553 0
69.601 0.375783 0
69.8374 0.485299 0
69.8289 0.37211 0
69.5439 0.136346 0
69.8991 0.433873 0
70.0469 0.493554 0
69.8491 0.161013 0
70.0209 0.386565 0
70.0142 0.183564 0
70.0972 0.3941 0
69.9708 0.242027 0
70.1654 0.493682 0
70.2549 0.457444 0
70.0988 0.130997 0
70.2256 0.451051 0
70.3441 0.489885 0
70.2452 0.124742 0
70.1761 0.391044 0
70.302 0.418157 0
70.4008 0.479481 0
70.2214 0.0774603 0
70.3962 0.436148 0
70.5335 0.539939 0
70.4724 0.454489 0
70.3837 0.144389 0
70.5545 0.472238 0
70.3385 0.180179 0
70.3896 0.420367 0
70.5647 0.519017 0
70.7012 0.583341 0
70.7031 0.590032 0
70.3503 0.0113053 0
70.8292 0.671703 0
70.8366 0.655225 0
70.8524 0.590477 0
70.8007 0.288559 0
70.9564 0.308022 0
70.8843 0.651604 0
70.5972 0.182301 0
71.0583 0.728713 0
71.0217 0.722061 0
71.0583 0.657573 0
70.9385 0.192695 0
71.1517 0.731155 0
71.3934 0.921889 0
71.1872 0.347217 0
71.1171 0.360872 0
71.3145 0.753579 0
71.602 0.958245 0
70.9772 0.217713 0
71.6765 1.01826 0
71.7401 0.979957 0
71.5026 0.182974 0
72.0297 1.12729 0
72.0898 1.07988 0
72.2378 0.92169 0
71.8842 0.385543 0
71.8115 0.440254 0
72.0395 1.04139 0
71.6407 0.281252 0
72.391 1.24918 0
72.4991 1.15407 0
72.5179 1.05424 0
72.0813 0.149543 0
72.8781 1.2169 0
72.9128 1.25001 0
72.6521 0.658153 0
73.1947 0.935299 0
72.757 0.529656 0
73.0404 1.17687 0
72.5185 0.323956 0
73.4045 1.34541 0
73.4591 1.27963 0
72.6293 0.28006 0
73.6213 1.1688 0
74.0353 1.30798 0
73.8305 1.31264 0
73.8117 0.28427 0
74.497 1.32926 0
74.5722 1.44243 0
73.564 0.859552 0
74.4371 1.04366 0
73.7982 0.499114 0
74.9332 1.49039 0
74.2994 0.155566 0
75.0245 1.41363 0
75.0443 1.34312 0
73.8903 0.126629 0
74.9441 1.21923 0
75.5089 1.41743 0
75.6455 1.41913 0
75.1358 0.359168 0
75.7403 1.3918 0
75.8159 1.50407 0
74.8946 0.867948 0
75.9907 0.983845 0
75.4534 0.346939 0
76.0208 1.50154 0
75.568 0.122751 0
76.1918 1.44212 0
76.3014 1.42991 0
75.2429 0.0995939 0
76.2258 1.22166 0
76.586 1.43617 0
76.7807 1.39353 0
75.9556 0.256237 0
76.6536 1.33118 0
76.9226 1.455 0
76.3802 1.03731 0
77.0253 0.87262 0
76.143 0.202094 0
76.7858 1.28816 0
76.2641 0.0822758 0
77.2179 1.43605 0
77.2951 1.27546 0
76.0981 0.0747401 0
77.2123 0.915638 0
77.4792 1.07559 0
77.7208 0.984027 0
76.5057 0.0340046 0
77.8441 0.85585 0
77.9176 0.694756 0
76.6825 0.0186426 0
77.9641 0.754565 0
77.5278 0.0778048 0
76.7575 0.215721 0
76.5524 0.18713 0
78.1141 0.522764 0
78.0551 0.0272005 0
78.3701 -0.0250299 0
76.4072 0.00148097 0
77.9598 -0.40957 0
78.3866 -0.671542 0
76.4909 -0.0238771 0
77.8057 -0.429998 0
78.3962 -1.15364 0
77.4591 -0.874234 0
76.5701 -0.276311 0
78.3025 -1.44119 0
78.2038 -1.73029 0
77.3179 -0.40352 0
76.9949 -1.91417 0
75.5899 -1.61342 0
78.0757 -1.78731 0
75.786 -0.216943 0
77.9325 -2.5134 0
75.8704 4.99619 0
76.3471 4.53007 0
72.683 1.24045 0
75.8177 4.90789 0
74.3122 4.51103 0
75.1925 5.38164 0
73.1818 0.478349 0
74.5674 5.48036 0
73.8191 5.39937 0
72.1416 0.635662 0
73.7666 5.75012 0
77.8633 -2.82081 0
75.962 -0.131326 0
77.6856 -3.06902 0
76.8649 -3.38355 0
76.3944 -2.88076 0
75.3839 -0.158994 0
76.9498 -3.8499 0
73.0328 5.24977 0
76.3244 -4.70785 0
75.2252 -0.847187 0
76.1461 -4.52526 0
75.3699 -5.24 0
71.2456 1.5369 0
75.1248 -5.10359 0
76.2233 -2.69264 0
75.6439 -4.59682 0
74.3239 -3.31154 0
73.6728 -0.523258 0
74.9831 -4.65314 0
74.4169 -4.92485 0
72.5657 5.51235 0
74.4416 -4.99445 0
74.327 -0.2677 0
73.7223 -5.21224 0
73.232 -5.69874 0
73.1661 -0.342445 0
72.4802 -5.80313 0
72.9255 -4.19341 0
71.4346 -0.41407 0
71.8156 -5.88295 0
71.8395 -3.23324 0
73.0715 -2.47377 0
72.2867 -5.04437 0
71.4475 -5.30827 0
73.3049 2.87911 0
70.5219 0.332065 0
72.8702 1.93082 0
71.9009 -0.0241064 0
71.1032 -5.71354 0
72.3766 5.20397 0
70.3499 0.244619 0
71.8897 4.40339 0
70.5097 -5.66952 0
71.548 -1.13691 0
69.9664 -4.0878 0
71.8288 5.91812 0
69.5231 1.37786 0
71.801 5.82385 0
70.3296 4.9011 0
69.6756 0.276437 0
70.8497 5.14133 0
70.3347 -4.25245 0
71.1582 -0.338016 0
69.9261 -5.78644 0
69.9828 -5.59757 0
71.0609 5.52926 0
69.7673 5.31019 0
69.1544 0.0188319 0
70.4709 5.48232 0
69.075 3.39769 0
69.2493 1.5927 0
69.2708 -5.74168 0
69.5403 -0.752874 0
69.5252 -5.64057 0
68.8562 5.5591 0
68.8598 -5.29314 0
68.8622 -0.76492 0
68.8663 -2.4203 0
68.1069 -5.1016 0
69.9172 -2.73064 0
67.9639 -4.91618 0
68.4762 -0.227853 0
67.3473 -4.75617 0
68.484 2.06661 0
68.6551 0.322511 0
68.6046 4.70024 0
68.2345 0.0904322 0
68.3947 5.48215 0
68.3021 5.16721 0
68.0174 0.157266 0
67.8046 4.53646 0
67.9177 0.114614 0
68.2341 -4.41958 0
68.4897 -0.435652 0
68.9928 4.01865 0
67.7816 1.26858 0
67.6068 4.29466 0
67.2896 -4.76103 0
68.5825 -0.190352 0
66.183 -4.07656 0
67.836 -1.12534 0
66.6975 -4.06254 0
68.1142 1.98478 0
67.792 0.330657 0
68.6878 -3.60856 0
67.773 -0.349914 0
66.2944 -3.84838 0
67.1888 3.90522 0
67.2917 -3.09541 0
67.7816 -0.745178 0
66.525 -3.35321 0
67.8316 2.36188 0
66.5461 1.46052 0
66.8692 3.42312 0
67.7436 -1.05393 0
66.4326 -3.6521 0
67.7454 0.978471 0
66.7454 4.49827 0
67.6904 -1.92149 0
67.7912 -0.229993 0
66.2427 -3.35969 0
66.6627 4.08934 0
67.8009 1.18335 0
66.63 3.27351 0
66.4537 3.20757 0
67.8195 0.88889 0
65.9714 2.87516 0
65.648 -2.97218 0
67.783 -0.781507 0
65.4053 -2.98794 0
67.1238 -1.56404 0
67.8395 -0.534644 0
65.1115 -2.08325 0
65.91 3.54907 0
67.7618 0.995404 0
66.8841 2.37346 0
65.5046 -1.86687 0
67.7993 -0.660012 0
65.0075 -1.74547 0
65.121 2.60799 0
67.8121 0.545338 0
65.4101 2.49243 0
65.6511 2.04348 0
67.8216 0.0890404 0
65.0796 2.15102 0
65.9525 -1.16569 0
67.7677 -0.849143 0
65.3964 -1.03801 0
64.5266 -0.666139 0
67.4584 -0.768395 0
64.7052 -0.568036 0
67.2703 0.743947 0
67.8254 0.161651 0
66.6334 1.76355 0
65.0195 1.69058 0
67.7657 0.0891861 0
64.5939 1.09078 0
67.6058 -0.254758 0
67.7848 -0.280932 0
64.587 -0.207966 0
64.9474 -0.0837424 0
67.8641 -0.155804 0
66.6313 0.193895 0
65.2183 0.345265 0
67.8328 -0.150914 0
67.3589 -3.98289 0
67.776 -1.13183 0
67.7361 0.355961 0
67.9069 4.67307 0
68.4835 -5.28434 0
70.2791 -0.638201 0
69.0435 0.688499 0
70.2379 5.76929 0
67.7776 0.648395 0
65.5688 3.39509 0
65.2282 -2.09612 0
67.6564 -0.552074 0
67.7625 -1.26912 0
67.588 -2.73144 0
67.7899 1.1957 0
67.9702 0.555443 0
67.8716 -0.0043106 0
64.9848 1.47069 0
68.1956 0.369403 0
67.916 1.27678 0
68.0107 -1.13423 0
68.9036 -0.501152 0
73.1821 -0.772218 0
72.851 -5.66734 0
74.0456 5.4367 0
72.8943 0.282959 0
67.7386 1.3241 0
68.8438 5.33728 0
68.2 -4.85552 0
68.4064 -1.81623 0
67.3061 -1.19739 0
65.8054 -0.202168 0
66.7273 4.02461 0
67.8506 1.49269 0
67.7942 -1.46539 0
65.7257 -3.35874 0
77.4782 -3.49783 0
75.1482 -0.404339 0
74.9212 0.490016 0
77.7353 3.21107 0
67.7866 -1.21867 0
67.7288 -0.143696 0
67.6415 0.501312 0
68.0263 0.617239 0
71.0594 0.443609 0
70.8732 2.67194 0
69.6821 -1.32489 0
72.0354 -1.12371 0
70.1397 3.22893 0
72.1677 5.57066 0
71.5125 -5.83124 0
70.6862 -1.23768 0
73.798 1.05088 0
74.5353 3.40049 0
73.5288 -1.77361 0
74.386 -0.00726451 0
76.4921 -0.060685 0
78.4084 -0.241473 0
78.6361 -0.283655 0
76.1828 0.00759522 0
76.2621 0.00212718 0
77.3304 1.3171 0
77.6783 -1.60958 0
76.7137 -0.115617 0
68.1895 -1.20023 0
67.7831 -0.496726 0
67.8464 1.03734 0
68.1704 0.761654 0
67.8427 1.08921 0
67.7775 0.733204 0
67.7559 -0.350066 0
67.8261 -1.13182 0
75.9891 0.602438 0
76.9511 1.19947 0
76.0788 -0.617723 0
76.1411 -0.073516 0
66.6814 -0.817336 0
67.9034 -0.371892 0
67.6153 -0.52117 0
67.8433 -0.91277 0
67.8185 0.533902 0
67.7901 1.20198 0
76.3669 1.40682 0
75.7733 0.200678 0
76.2239 -0.00545165 0
75.9274 -2.04374 0
69.9936 -0.0131515 0
69.5509 -1.92682 0
70.1999 1.17495 0
69.1815 0.303972 0
67.721 2.89729 0
67.2724 4.94907 0
67.2832 -4.36328 0
68.0189 -2.4855 0
68.1207 -1.70881 0
67.5967 -1.80873 0
67.7616 3.24019 0
67.8954 1.75801 0
76.7775 -0.164409 0
76.68 -0.00280534 0
76.5006 0.022752 0
77.1456 0.62874 0
68.9756 -3.66376 0
69.651 -3.50616 0
69.3025 3.06839 0
69.7163 5.74217 0
68.4804 -2.86074 0
69.0771 -1.64464 0
68.9259 2.12856 0
68.268 1.2097 0
75.4238 1.5173 0
74.8036 0.155201 0
75.217 -0.000963312 0
74.1207 -1.50255 0
67.5678 0.806743 0
67.8277 0.0596922 0
76.289 -0.190727 0
76.9464 -0.984404 0
76.5299 0.455287 0
75.9437 0.0665817 0
67.9971 -0.796625 0
67.8886 -1.14832 0
68.2499 1.37324 0
67.814 0.826463 0
67.8165 -0.466429 0
67.7583 -0.98514 0
67.72 0.852475 0
67.7473 0.401368 0
65.303 1.2293 0
67.3584 1.16655 0
74.1011 -2.00242 0
76.4662 -4.28439 0
76.9142 4.06498 0
73.8976 1.45818 0
67.2365 -1.81469 0
65.7424 -2.15177 0
73.2202 0.220712 0
73.6042 1.26516 0
71.6713 0.115062 0
72.799 1.28353 0
73.1521 -0.96876 0
73.2353 -0.138075 0
72.1867 -0.671327 0
72.1715 -3.77756e-05 0
75.4669 -0.397736 0
75.2936 -1.08372 0
75.4325 0.505868 0
75.1158 -0.00593017 0
67.8892 0.437362 0
67.7348 0.743955 0
67.0351 0.329115 0
65.494 0.570987 0
67.8434 -0.500515 0
67.8066 -0.418736 0
67.5783 0.225257 0
67.5727 -0.66479 0
78.25 -1.48023 0
76.038 -1.01988 0
76.9388 1.43623 0
78.6762 0.881751 0
67.6375 -0.131504 0
67.7398 -0.611743 0
67.6817 0.164548 0
67.7451 0.287491 0
74.0603 -0.264513 0
73.8519 -0.679638 0
74.4143 0.461992 0
73.5465 0.133338 0
71.2933 0.256002 0
71.5254 0.847746 0
71.7447 -0.680379 0
71.5357 -0.16283 0
67.8777 -0.809799 0
68.4689 -1.68657 0
68.051 1.28981 0
67.8437 1.04226 0
68.4101 2.15639 0
67.6358 1.45384 0
67.8653 -1.57189 0
68.2017 -2.18029 0
76.9554 -0.0748051 0
77.4204 1.03327 0
78.0558 -1.26556 0
77.6337 0.034516 0
67.7249 -1.0899 0
67.7616 -1.2391 0
67.7466 1.14459 0
67.5443 1.0353 0
71.2577 0.864207 0
70.8374 0.260813 0
71.1044 -0.141888 0
71.4026 -0.636731 0
72.6544 2.79921 0
74.1046 4.79242 0
73.6409 -5.64384 0
73.4558 -2.12991 0
66.1112 -2.53401 0
67.5641 -2.6629 0
72.4174 -1.988 0
72.9003 -0.717944 0
71.616 0.32641 0
74.0725 2.04339 0
65.7925 3.2508 0
67.1371 2.04516 0
72.6435 -0.0447525 0
72.7901 -0.577951 0
72.9244 0.520054 0
72.7736 0.158258 0
75.4574 -0.21737 0
75.3148 -0.912386 0
75.7908 1.35101 0
75.0934 0.188368 0
71.1175 0.93522 0
69.7341 0.236711 0
70.628 -0.234522 0
71.1742 -2.01611 0
76.4276 0.566299 0
76.4398 1.27545 0
76.785 -2.00206 0
77.1035 -0.577729 0
70.4848 -2.50995 0
71.2281 -1.16815 0
70.6249 1.76082 0
72.5834 3.98856 0
70.6558 0.518226 0
70.5047 0.0996501 0
70.9274 -0.153154 0
70.891 -0.670343 0
71.6977 -0.205513 0
71.9667 0.00191542 0
71.9752 0.158201 0
71.5452 0.687664 0
68.6254 0.374615 0
68.5011 0.989303 0
68.7383 -0.869376 0
69.3104 -0.245214 0
69.8861 1.86659 0
68.7212 1.44763 0
68.45 -2.14401 0
68.0411 -2.25552 0
76.5247 -0.185765 0
76.3666 -0.104406 0
76.4852 0.178567 0
77.1361 0.204804 0
68.8538 2.60856 0
69.067 1.79218 0
68.2139 -0.673557 0
68.0793 -0.248378 0
67.9985 0.218953 0
68.4669 0.661608 0
67.1203 -0.728801 0
67.6404 -1.15619 0
77.9003 -2.28379 0
76.1337 -1.20846 0
75.7072 2.53467 0
78.0555 2.66707 0
67.804 -1.27053 0
67.87 -0.38364 0
67.6851 0.543915 0
67.7812 1.24682 0
67.7348 0.130005 0
67.7473 0.630896 0
67.7831 -0.344071 0
67.8223 -0.0235426 0
66.4048 -0.254451 0
64.575 0.0739411 0
72.6491 2.14797 0
75.7537 2.02207 0
74.7498 -1.58691 0
75.1198 -3.26382 0
67.6523 1.60572 0
67.4596 0.894421 0
67.8103 -0.0625572 0
67.7417 -0.096113 0
69.4601 4.56058 0
67.9885 2.90289 0
69.0948 -2.94442 0
68.5162 -5.48233 0
67.5584 0.697086 0
67.8164 0.79483 0
75.439 0.676998 0
75.679 1.47767 0
74.8169 -1.70798 0
75.4092 -0.335883 0
71.1199 -0.161562 0
71.41 -0.0917273 0
71.2937 0.114522 0
71.0446 0.63461 0
78.6443 -0.336538 0
77.6831 0.742542 0
77.3207 0.0699926 0
78.2051 0.271499 0
67.649 0.0849006 0
67.2777 -1.41555 0
67.8463 1.21444 0
67.9253 1.52323 0
68.0289 -1.76832 0
67.8132 -1.08606 0
67.8501 0.173996 0