# vtk DataFile Version 3.0
Unstructured Grid for Triangles
ASCII
DATASET UNSTRUCTURED_GRID
POINTS 29612 DOUBLE
-0.000272397 1.23686e-05 0
-0.000295789 9.5838e-06 0
-0.000277865 -3.1235e-06 0
0.002024 0.0005 0
0.00203975 0.00049875 0
0.00205 0.0005 0
0.00203975 -0.00049875 0
0.002024 -0.0005 0
0.00205 -0.0005 0
0.0020295 0.0004975 0
0.0020295 -0.0004975 0
0.00201925 0.00049625 0
0.00201925 -0.00049625 0
-0.000529747 -0.000479887 0
-0.00055 -0.0005 0
-0.000524 -0.0005 0
-0.000505983 -0.000484325 0
-0.000498 -0.0005 0
-0.000472 -0.0005 0
-0.000483864 -0.000487761 0
-0.000446 -0.0005 0
-0.000459 -0.000484239 0
-0.000429453 -0.000424878 0
-0.000447486 -0.000420717 0
-0.000441829 -0.000436609 0
-0.000512578 -0.000462101 0
-0.000493078 -0.000453594 0
-0.00050706 -0.000439006 0
-0.000419243 -0.000477545 0
-0.000440307 -0.000471837 0
-0.00043691 -0.000486724 0
-0.000516129 -0.000420948 0
-0.000495355 -0.000415432 0
-0.000511646 -0.00040128 0
-0.000394697 -0.000481197 0
-0.000406302 -0.000455143 0
-0.000537257 -0.000388197 0
-0.000531099 -0.000407297 0
-0.000523982 -0.000388328 0
-0.000370063 -0.000472956 0
-0.000368 -0.0005 0
-0.00035308 -0.000485302 0
-0.0005072 -0.00037867 0
-0.000485506 -0.000383975 0
-0.000490949 -0.000359622 0
-0.000337127 -0.000484331 0
-0.000316 -0.0005 0
-0.000326495 -0.00047415 0
-0.00055 -0.00035 0
-0.000531201 -0.000370361 0
-0.000528367 -0.000346817 0
-0.000363898 -0.000448809 0
-0.000383315 -0.000460336 0
-3.26269e-05 -0.000415503 0
-5.99662e-05 -0.000409556 0
-5.46944e-05 -0.000429488 0
-0.000529747 0.000479887 0
-0.00055 0.0005 0
-0.00055 0.000475 0
-0.00055 0.00045 0
-0.000534834 0.000429171 0
-0.000526943 0.000442611 0
-0.000534026 0.000460176 0
-0.000531099 0.000407297 0
-0.000511672 0.000401178 0
-0.000516129 0.000420948 0
-0.000524 0.0005 0
-0.000505983 0.000484325 0
-0.000531201 0.000370361 0
-0.0005072 0.00037867 0
-0.000523982 0.000388328 0
-0.00048341 0.000469132 0
-0.000483679 0.000487539 0
-0.000528367 0.000346817 0
-0.00055 0.000325 0
-0.000525657 0.000328474 0
-0.000498 0.0005 0
-0.000530382 0.0003125 0
-0.000419243 0.000477545 0
-0.000440015 0.00047335 0
-0.000425917 0.000463678 0
-0.000435138 0.000262661 0
-0.000414982 0.000274462 0
-0.000435654 0.000285217 0
-0.000459 0.000484239 0
-0.000436852 0.000487027 0
-0.000446 0.0005 0
-0.000533308 0.000292503 0
-0.00055 0.000275 0
-0.000523377 0.000276953 0
-0.000425282 0.000446352 0
-0.000409368 0.000435728 0
-0.000406302 0.000455143 0
0.002009 0.000495 0
0.001998 0.0005 0
0.00199875 0.00049375 0
0.0019885 0.0004925 0
0.001972 0.0005 0
0.00197825 0.00049125 0
0.001968 0.00049 0
0.00195775 0.00048875 0
0.001946 0.0005 0
0.0019475 0.0004875 0
0.00193725 0.00048625 0
0.00192 0.0005 0
0.001927 0.000485 0
0.00191675 0.00048375 0
0.0019065 0.0004825 0
0.001894 0.0005 0
0.00189625 0.00048125 0
0.001886 0.00048 0
0.001868 0.0005 0
0.00187575 0.00047875 0
0.0018655 0.0004775 0
0.00185515 0.00048575 0
0.001842 0.0005 0
0.001845 0.000475 0
0.00185525 0.00047625 0
0.00182564 0.0004829 0
0.001816 0.0005 0
0.0018245 0.0004725 0
0.00183475 0.00047375 0
0.00181425 0.00047125 0
0.00180295 0.000482657 0
0.00179 0.0005 0
0.00179375 0.00046875 0
0.001804 0.00047 0
0.00178168 0.000480619 0
0.001764 0.0005 0
0.00177325 0.00046625 0
0.0017835 0.0004675 0
0.00176428 0.000476631 0
0.001763 0.000465 0
0.001738 0.0005 0
0.001751 0.000484164 0
0.00175275 0.00046375 0
0.00174025 0.000475632 0
0.001712 0.0005 0
0.00172615 0.000478449 0
0.001722 0.00046 0
0.00173225 0.00046125 0
0.0017015 0.0004575 0
0.00171243 0.00047381 0
0.00169554 0.000479999 0
0.001686 0.0005 0
0.00167507 0.000479751 0
0.00168498 0.000464861 0
0.00166 0.0005 0
0.0016558 0.000471459 0
0.00167135 0.000462887 0
0.001681 0.000455 0
0.0016605 0.0004525 0
0.00167075 0.00045375 0
0.00164059 0.000461599 0
0.0016394 0.000479551 0
0.00162881 0.00046615 0
0.00162975 0.00044875 0
0.00165025 0.00045125 0
0.00164 0.00045 0
0.00161754 0.000458641 0
0.00161722 0.000478101 0
0.00159956 0.000458294 0
0.00160925 0.00044625 0
0.0016195 0.0004475 0
0.00157667 0.000460322 0
0.00158875 0.00044375 0
0.00159194 0.000480155 0
0.001599 0.000445 0
0.0015785 0.0004425 0
0.00155808 0.000456757 0
0.00155647 0.000476701 0
0.00154059 0.000466642 0
0.00153756 0.000450083 0
0.00154839 0.000450446 0
0.00156825 0.00044125 0
0.00151954 0.000480508 0
0.00154052 0.00048477 0
0.00153 0.0005 0
0.00154775 0.00043875 0
0.00152142 0.000456625 0
0.00152821 0.000445753 0
0.0015375 0.0004375 0
0.001504 0.0005 0
0.00149644 0.000485168 0
0.00151787 0.000443178 0
0.00152725 0.00043625 0
0.00150675 0.00043375 0
0.001517 0.000435 0
0.00148119 0.000450887 0
0.00148072 0.000475756 0
0.00146584 0.000463516 0
0.00150008 0.00046396 0
0.00149351 0.00044543 0
0.0015061 0.000446252 0
0.001476 0.00043 0
0.00148625 0.00043125 0
0.00146492 0.000482975 0
0.00144888 0.000473562 0
0.00146676 0.000444259 0
0.00145255 0.000453656 0
0.00145652 0.000438669 0
0.00141401 0.000479821 0
0.001426 0.0005 0
0.0014 0.0005 0
0.00144374 0.000438862 0
0.0014555 0.0004275 0
0.001435 0.000425 0
0.00144525 0.00042625 0
0.00142746 0.000438121 0
0.00141288 0.000443191 0
0.00141707 0.000432778 0
0.0013921 0.000438992 0
0.00140355 0.00045932 0
0.00138302 0.00045922 0
0.00142912 0.000458869 0
0.00140592 0.000430037 0
0.0014145 0.0004225 0
0.00136458 0.00045869 0
0.00137106 0.00044063 0
0.001394 0.00042 0
0.00138259 0.000428915 0
0.00137484 0.000477094 0
0.00139166 0.000478902 0
0.0013586 0.000478984 0
0.00133449 0.000478649 0
0.00134717 0.000461848 0
0.00137256 0.000425134 0
0.00135323 0.000424541 0
0.00136325 0.00041625 0
0.00136122 0.00042876 0
0.00131206 0.000447284 0
0.00133168 0.000456738 0
0.00131773 0.000465243 0
0.00134756 0.000440343 0
0.00132747 0.000436463 0
0.00133483 0.000426786 0
0.00131081 0.00041867 0
0.00132382 0.000422815 0
0.00131507 0.00043122 0
0.00131059 0.000480123 0
0.0013325 0.0004125 0
0.0012915 0.0004075 0
0.0012982 0.000418199 0
0.00128915 0.000426216 0
0.00126366 0.000447574 0
0.00127331 0.000430908 0
0.00128781 0.000444872 0
0.00125336 0.000428376 0
0.00130218 0.000431077 0
0.00127894 0.000416344 0
0.00124774 0.000469608 0
0.00127668 0.000464148 0
0.00126591 0.00048331 0
0.00126722 0.000418415 0
0.00125768 0.000411931 0
0.00124326 0.000413546 0
0.0012505 0.0004025 0
0.00122408 0.000450118 0
0.00120276 0.000447432 0
0.0012139 0.000432235 0
0.00124336 0.000444132 0
0.00123056 0.000427595 0
0.00122977 0.000409049 0
0.0012185 0.000469217 0
0.00122676 0.000485947 0
0.00120525 0.000486094 0
0.00121479 0.000413153 0
0.00119547 0.000424221 0
0.00120249 0.000407448 0
0.00119925 0.00039625 0
0.00119346 0.000406114 0
0.00117479 0.000447279 0
0.00114726 0.000445259 0
0.0011571 0.000427814 0
0.00119443 0.000466611 0
0.00117447 0.000421596 0
0.00118421 0.00040752 0
0.00117409 0.000404437 0
0.00116775 0.000470073 0
0.001179 0.0004855 0
0.00115473 0.000484802 0
0.0011685 0.0003925 0
0.00117875 0.00039375 0
0.00115454 0.000400551 0
0.001148 0.00039 0
0.00115825 0.00039125 0
0.00111703 0.000423398 0
0.00113786 0.000426731 0
0.00112589 0.000443871 0
0.00113234 0.000406671 0
0.00114754 0.000413371 0
0.001106 0.000442326 0
0.00109703 0.000424261 0
0.0011275 0.0003875 0
0.00113775 0.00038875 0
0.00110211 0.000480875 0
0.00108244 0.000471951 0
0.00109312 0.000458413 0
0.00111755 0.000399116 0
0.0010944 0.000392972 0
0.00110415 0.000405876 0
0.00108839 0.000407536 0
0.00106472 0.000476905 0
0.00107274 0.000457868 0
0.00108011 0.000392415 0
0.00106885 0.000404365 0
0.00106625 0.000388708 0
0.00105286 0.000419254 0
0.00105055 0.000395469 0
0.00104215 0.000439764 0
0.00106346 0.000440629 0
0.00100945 0.000451249 0
0.00102825 0.00045614 0
0.00101189 0.000468452 0
0.00107625 0.00038125 0
0.00105575 0.00037875 0
0.001066 0.00038 0
0.00103352 0.000476905 0
0.00101803 0.00048465 0
0.00103685 0.000389398 0
0.0010245 0.00038825 0
0.00103525 0.00037625 0
0.00101092 0.000399779 0
0.00101267 0.000382619 0
0.00101382 0.00042025 0
0.00103187 0.000405286 0
0.00103359 0.000424605 0
0.000987383 0.00045447 0
0.000999411 0.000435161 0
0.0009744 0.000433145 0
0.0010045 0.0003725 0
0.00101475 0.00037375 0
0.000970845 0.000465215 0
0.000952614 0.000467664 0
0.000961768 0.000449944 0
0.00099729 0.000387704 0
0.000978901 0.00039598 0
0.000985823 0.000381492 0
0.000962289 0.000393709 0
0.000974259 0.000381279 0
0.00097375 0.00036875 0
0.000963045 0.000376631 0
0.000958 0.0005 0
0.000932 0.0005 0
0.000947542 0.00048457 0
0.000949675 0.000385245 0
0.000936214 0.000389472 0
0.000940006 0.000374906 0
0.000966411 0.000412573 0
0.000944241 0.000407079 0
0.000903569 0.000424993 0
0.000921701 0.000402409 0
0.000927439 0.000427744 0
0.000889795 0.000409067 0
0.000903071 0.00040248 0
0.000925447 0.000377721 0
0.00093275 0.00036375 0
0.000907708 0.000387127 0
0.000911303 0.000370839 0
0.000911933 0.000455145 0
0.000930678 0.000473279 0
0.000911886 0.000482603 0
0.000887724 0.000388076 0
0.000899595 0.000375116 0
0.000902 0.00036 0
0.000889241 0.00036954 0
0.000836977 0.000459472 0
0.000836223 0.000483578 0
0.000820467 0.000474142 0
0.000871227 0.000403557 0
0.000861 0.000355 0
0.000868368 0.000365714 0
0.00085484 0.00036588 0
0.000847735 0.000402845 0
0.000823121 0.000421599 0
0.000826582 0.000398147 0
0.000846943 0.00042454 0
0.000838832 0.000378613 0
0.000835569 0.000363808 0
0.000844098 0.00036291 0
0.00085075 0.00035375 0
0.000851465 0.000477164 0
0.00083025 0.00035125 0
0.000822824 0.000368659 0
0.00081446 0.000357362 0
0.000805884 0.000371794 0
0.000753471 0.000477524 0
0.000738313 0.000473927 0
0.000739102 0.000461526 0
0.00079826 0.000358588 0
0.000788607 0.000376287 0
0.000781733 0.000357987 0
0.000816783 0.000384471 0
0.000807975 0.000404095 0
0.000752138 0.000404775 0
0.000767682 0.000417043 0
0.000749617 0.000421803 0
0.000752903 0.000384008 0
0.000738293 0.000393136 0
0.000772614 0.000394048 0
0.00076863 0.000371878 0
0.000765995 0.000354121 0
0.000779 0.000345 0
0.00071811 0.000453059 0
0.000738069 0.000437967 0
0.000752085 0.000365972 0
0.000728123 0.000374583 0
0.000741845 0.000354664 0
[...]
CELL_DATA 58684
VECTORS velocity DOUBLE
64.9795 0.265258 0
68.1259 0.000101958 0
68.3039 0.000273688 0
68.149 0.00425271 0
68.3164 -0.00681875 0
68.1695 -0.00685595 0
68.3393 0.00677942 0
67.794 -0.00878427 0
67.7958 -0.0523495 0
67.8855 -0.00721077 0
67.9424 -0.00821736 0
67.943 -0.267926 0
67.8331 -0.196647 0
67.9918 -0.0835557 0
67.8042 -0.358584 0
68.0553 -0.112138 0
67.7911 -0.295053 0
68.2284 -0.116602 0
67.8509 -0.504772 0
68.5728 -0.0908325 0
67.8199 -0.298117 0
68.2219 -0.272678 0
72.8177 -1.51302 0
67.7819 0.0362516 0
67.7658 0.151 0
67.7817 0.0737265 0
67.8163 0.338319 0
67.8006 0.0528649 0
67.8122 0.439913 0
67.9051 0.0779373 0
67.8195 0.372446 0
67.8555 0.0529589 0
67.7286 0.37668 0
68.0453 0.104859 0
67.8165 0.746206 0
67.9831 0.0514236 0
67.8543 0.440967 0
68.0733 0.22799 0
68.1688 -0.0100456 0
68.1841 0.00188096 0
68.2223 -0.00632519 0
68.2275 -0.0121893 0
68.2391 0.00437466 0
68.2819 -0.00504482 0
68.2941 -0.012255 0
68.3032 -0.0076002 0
68.3237 0.0068371 0
68.366 -0.0124332 0
68.3758 -0.0114058 0
68.3946 0.0110608 0
68.4495 -0.0113122 0
68.464 -0.0155327 0
68.4785 -0.00445793 0
68.5051 0.013006 0
68.5534 -0.0142453 0
68.5669 -0.00669727 0
68.5919 0.0172984 0
68.6588 -0.021121 0
68.6742 -0.0198474 0
68.6981 -0.00473555 0
68.7301 0.0134327 0
68.7622 -0.0241263 0
68.814 -0.00511754 0
68.8704 0.011346 0
68.8968 -0.0148016 0
68.9116 -0.0124258 0
68.9416 0.00779241 0
68.9804 0.0153021 0
69.0115 -0.00910798 0
69.0417 0.0128818 0
69.0834 0.0202591 0
69.117 -0.00887372 0
69.1474 0.0049154 0
69.1965 -0.0133186 0
69.223 0.0178174 0
69.2681 0.00217125 0
69.2867 -0.00259231 0
69.3501 0.0224341 0
69.3813 0.00287765 0
69.4934 0.0285846 0
69.4067 0.00884435 0
69.4953 0.0175763 0
69.5534 -0.00567877 0
69.5308 0.0198015 0
69.6661 0.00755528 0
69.6364 0.0305587 0
69.6274 0.0359314 0
69.6869 0.0251855 0
69.8136 0.0426163 0
69.8656 0.0519829 0
69.7679 0.043347 0
69.8315 0.0416202 0
69.917 0.0333149 0
69.8961 0.0262313 0
69.9518 0.0545392 0
70.0751 0.0670547 0
70.0154 0.0270762 0
70.0473 0.0589305 0
70.1187 0.0641696 0
70.1584 0.0388204 0
70.2728 0.0679932 0
70.1717 0.0726058 0
70.2971 0.0107897 0
70.2841 0.091041 0
70.3523 0.0848314 0
70.3391 0.090823 0
70.4079 0.0125813 0
70.3768 0.10538 0
70.4287 0.106801 0
70.5528 0.0730948 0
70.5116 0.0650524 0
70.4616 0.0827923 0
70.5702 0.110706 0
70.6044 0.0507408 0
70.6693 0.0967304 0
70.6436 0.0652891 0
70.7885 0.0202382 0
70.693 0.120685 0
70.7422 0.121261 0
70.8419 0.100503 0
70.9203 0.0665754 0
70.8117 0.0469346 0
70.8684 0.110304 0
71.0001 0.0549927 0
70.9683 0.0898362 0
70.9459 0.0452579 0
70.9907 0.0793752 0
71.0989 0.0337048 0
71.027 0.0680748 0
71.1 0.048457 0
71.2434 0.00639437 0
71.1884 0.0317323 0
71.1757 0.0228619 0
71.2772 -0.00595669 0
71.1999 0.00878639 0
71.2138 0.0125002 0
71.3691 -0.0417283 0
71.4607 -0.0441884 0
71.5096 -0.0801387 0
71.384 -0.0415286 0
71.4163 -0.0534148 0
71.428 -0.0447103 0
71.5172 -0.106231 0
71.5792 -0.129464 0
71.7307 -0.125782 0
71.566 -0.0626414 0
71.5748 -0.119969 0
71.628 -0.164759 0
71.6163 -0.0304023 0
71.7942 -0.221078 0
71.8084 -0.24889 0
71.9876 -0.160193 0
71.8363 -0.132924 0
71.8583 -0.216749 0
71.9049 -0.28153 0
71.8535 -0.0396416 0
71.9344 -0.333754 0
72.0563 -0.373369 0
72.1617 -0.262299 0
72.095 -0.305792 0
72.2607 -0.281813 0
72.1466 -0.402284 0
72.2201 -0.0966724 0
72.1664 -0.376227 0
72.3271 -0.384262 0
72.32 -0.115275 0
72.4535 -0.453669 0
72.5126 -0.394028 0
72.5025 -0.23063 0
72.5513 -0.165402 0
72.467 -0.462942 0
72.5361 -0.500932 0
72.5169 -0.0813511 0
72.6461 -0.454984 0
72.7184 -0.447274 0
72.6056 -0.316176 0
72.6654 -0.186494 0
72.6957 -0.216771 0
72.7707 -0.49527 0
72.7079 -0.130248 0
72.8464 -0.414372 0
72.8656 -0.358429 0
72.884 -0.418386 0
72.7173 -0.00843822 0
72.9578 -0.350434 0
72.8504 -0.293147 0
72.8855 -0.215877 0
72.9119 -0.227177 0
73.0099 -0.362095 0
73.0214 -0.336698 0
72.7903 -0.0826498 0
73.0241 -0.293053 0
73.0307 -0.309432 0
73.0258 -0.303042 0
72.8841 -0.0801439 0
72.9739 -0.244404 0
73.0491 -0.290619 0
73.0021 -0.258198 0
72.9781 -0.22714 0
73.0337 -0.296424 0
73.0404 -0.289617 0
72.8899 -0.0733562 0
73.0284 -0.315808 0
73.0208 -0.326863 0
73.1394 -0.121818 0
73.0274 -0.397119 0
73.0204 -0.290582 0
73.1118 -0.371868 0
73.1332 -0.504727 0
73.0626 -0.419514 0
73.0106 -0.459887 0
73.167 -0.288259 0
73.0488 -0.593275 0
73.0348 -0.581985 0
73.1102 -0.781553 0
73.4263 -0.0134249 0
73.2355 -0.722364 0
73.1272 -0.877615 0
73.2893 -0.261139 0
73.1592 -0.964482 0
73.5413 -0.690805 0
73.2164 -1.01209 0
73.8947 -0.459754 0
73.4065 -1.12164 0
73.3443 -1.26615 0
73.7833 -0.248487 0
73.5105 -1.39791 0
73.859 -1.58924 0
73.8418 -1.28435 0
74.0674 -0.842042 0
73.8566 -1.88507 0
74.3884 -0.789863 0
74.8811 -0.132292 0
73.8714 -1.47994 0
74.0702 -1.94901 0
74.3127 -2.14306 0
74.8797 -0.701243 0
74.6904 -1.92798 0
75.0209 -2.17804 0
75.159 -0.235388 0
75.4026 -2.17165 0
75.1208 -2.43495 0
75.0605 -1.75812 0
75.4047 -0.826996 0
75.5754 -0.974426 0
75.5031 -2.4912 0
75.8762 -0.00733628 0
75.7737 -2.67677 0
76.1116 -2.47227 0
75.9865 -2.65582 0
76.2662 -0.535865 0
76.3416 -2.05119 0
76.8541 -1.99228 0
76.3304 -0.00640055 0
77.0186 -2.3789 0
77.3694 -1.84979 0
76.7372 -1.41372 0
76.4885 -0.601018 0
77.3406 -2.12578 0
76.7679 -0.715072 0
76.6528 -0.0529172 0
77.2121 -1.3463 0
77.7538 -1.68133 0
78.0005 -1.49567 0
76.8428 -0.201109 0
77.8339 -0.93808 0
78.0996 -1.22994 0
76.7811 -0.0253767 0
78.1764 -1.03017 0
78.3043 -0.691794 0
77.8812 -0.367409 0
76.6021 0.00226284 0
78.3364 -0.277949 0
77.433 0.0946021 0
77.653 0.218591 0
78.1928 -0.174831 0
78.0034 0.0105762 0
78.4268 0.212086 0
76.7134 0.257309 0
78.4294 0.162919 0
77.9729 0.501389 0
78.3008 0.764677 0
76.6742 0.0624669 0
78.1453 1.18905 0
77.9901 1.29121 0
75.5869 0.132869 0
78.2296 1.07411 0
78.1445 1.26251 0
76.5625 1.09032 0
76.4204 0.510997 0
77.5698 0.909084 0
78.0584 1.5831 0
75.8422 0.237084 0
77.7077 2.11465 0
77.939 1.79473 0
77.9424 1.91316 0
75.1584 0.988476 0
76.9532 2.15811 0
77.6023 2.33847 0
75.2145 0.161188 0
77.4687 2.66414 0
77.4289 2.54594 0
76.6466 3.54509 0
73.5203 0.251988 0
77.3036 3.35264 0
76.0456 2.45189 0
74.7726 1.07374 0
74.4971 2.02611 0
77.1569 3.61948 0
76.5174 3.978 0
73.9446 0.411919 0
76.3737 4.48062 0
68.3382 0.00669896 0
68.3451 -0.00172447 0
68.3733 0.00159245 0
68.3769 0.00841099 0
68.3828 -0.00465355 0
68.4143 -0.000396691 0
68.4239 0.00420142 0
68.4299 0.00294303 0
68.4437 -0.00755231 0
68.472 -0.00110272 0
68.4816 -0.000998474 0
68.4917 -0.0119605 0
68.5253 -0.00619582 0
68.539 -0.00449486 0
68.5508 -0.00689852 0
68.5679 -0.0145672 0
68.6002 -0.00959661 0
68.6138 -0.00956782 0
68.6291 -0.0198363 0
68.6685 -0.0124348 0
68.6843 -0.0108226 0
68.7301 -0.0177102 0
68.7055 -0.0141664 0
68.7572 -0.0184112 0
68.808 -0.0332077 0
68.7817 -0.0202315 0
68.8422 -0.0298451 0
68.8595 -0.0389672 0
68.8955 -0.0359175 0
68.8512 -0.00811297 0
68.9297 -0.0417478 0
68.9698 -0.038694 0
68.9327 -0.011026 0
69.0395 -0.0398393 0
69.0497 -0.0361004 0
69.0732 -0.0371366 0
69.0109 -0.0187412 0
69.0981 -0.0337575 0
69.1592 -0.0467285 0
69.1089 -0.0181819 0
69.2382 -0.0383099 0
69.2445 -0.0163622 0
69.2801 -0.0468683 0
69.2171 -0.014996 0
69.3179 -0.0370507 0
69.4059 -0.0437544 0
69.4541 -0.0080751 0
69.3968 -0.0204325 0
69.495 -0.0321943 0
69.5221 -0.0250379 0
69.6311 -0.0304447 0
69.6047 -0.0262803 0
69.6653 -0.0298028 0
69.7473 -0.00741571 0
69.7922 -0.0114528 0
69.8051 -0.0361018 0
69.868 0.00619868 0
69.9833 0.0253543 0
69.8502 0.025638 0
69.9975 0.0250636 0
70.0179 0.0251877 0
70.0965 0.00650228 0
70.1689 0.000690343 0
70.2226 0.0382444 0
69.9088 0.020455 0
70.3119 0.0388592 0
70.475 0.0518349 0
70.3942 0.047591 0
70.3237 0.0238551 0
70.5494 0.0608481 0
70.5928 0.0380252 0
70.76 0.0192631 0
70.5226 0.0593743 0
70.7394 0.0480471 0
70.8263 0.055055 0
70.5991 0.0217163 0
70.7934 0.0414246 0
70.9974 0.0638705 0
70.8487 0.0340792 0
71.0494 0.0377739 0
71.2004 0.0484488 0
71.1021 0.0456957 0
71.2313 0.00644583 0
71.2485 0.0353967 0
71.3298 0.0560183 0
71.2839 0.0212906 0
71.4197 0.046025 0
71.2945 0.0320003 0
71.5212 0.013998 0
71.3609 0.0128239 0
71.5421 0.0374105 0
71.7159 0.0123166 0
71.6074 0.00056262 0
71.5974 0.0262416 0
71.7749 0.00176345 0
71.7187 -0.0223877 0
71.5863 -0.0149289 0
71.8161 -0.0349733 0
71.8656 -0.0547486 0
71.743 -0.0180172 0
71.8392 -0.0330422 0
71.9088 -0.0757275 0
71.9344 -0.0813151 0
71.7957 -0.0272649 0
71.9678 -0.09376 0
71.9817 -0.115771 0
71.9102 -0.0460335 0
71.9251 -0.071699 0
71.9961 -0.145319 0
71.9824 -0.123499 0
71.8474 -0.0331217 0
71.9931 -0.147202 0
72.0107 -0.155804 0
71.9456 -0.0517146 0
71.9791 -0.129763 0
71.9874 -0.169882 0
71.9722 -0.126646 0
71.8942 -0.0392731 0
71.9805 -0.147617 0
71.9609 -0.131801 0
71.9145 -0.0345992 0
71.9547 -0.0889894 0
71.9509 -0.0303722 0
71.9352 -0.0529985 0
71.9508 -0.0507032 0
71.9447 -0.0846342 0
71.931 -0.00107347 0
71.9273 0.0050009 0
71.9251 -0.000191906 0
71.9278 0.0867315 0
71.9676 0.0551296 0
71.9233 -0.0136017 0
71.9196 0.119535 0
71.931 0.17048 0
71.9489 0.0201525 0
71.9283 0.20458 0
71.981 0.358728 0
71.9712 0.350532 0
72.0435 0.119492 0
72.0391 0.451392 0
72.022 0.11447 0
71.9365 0.200117 0
72.0223 0.439484 0
72.1203 0.622242 0
72.13 0.685966 0
72.0271 0.00861657 0
72.2507 0.87649 0
72.2529 0.882433 0
72.3714 0.85607 0
72.4327 0.411356 0
72.6215 0.466331 0
72.3527 0.937992 0
72.2398 0.209796 0
72.5354 1.13075 0
72.5373 1.10944 0
72.6566 1.03176 0
72.642 0.289318 0
72.7112 1.18277 0
73.0156 1.502 0
72.9104 0.546561 0
72.8181 0.568048 0
72.9962 1.21299 0
73.2973 1.56352 0
72.6726 0.331737 0
73.4075 1.66046 0
73.4863 1.58395 0
73.2602 0.290524 0
73.8571 1.74071 0
73.9382 1.65837 0
74.0917 1.31744 0
73.6515 0.583652 0
73.6107 0.683686 0
73.8595 1.55989 0
73.4233 0.455257 0
74.2899 1.79418 0
74.4089 1.61087 0
74.3364 1.37793 0
73.8049 0.216901 0
74.7715 1.53104 0
74.787 1.52259 0
74.4107 0.856654 0
74.8464 1.06223 0
74.435 0.67787 0
74.8906 1.36524 0
74.2105 0.456039 0
75.1556 1.39833 0
75.1978 1.29456 0
74.2244 0.341978 0
75.208 1.06999 0
75.4994 1.06217 0
75.3609 1.11709 0
74.9343 0.273859 0
75.6858 0.922525 0
75.7021 0.934089 0
75.0342 0.83842 0
75.4193 0.711139 0
75.0254 0.483845 0
75.7563 0.824042 0
75.103 0.128473 0
75.7652 0.73869 0
75.7424 0.696706 0
74.9034 0.109943 0
75.6668 0.664485 0
75.7958 0.659612 0
75.7992 0.654783 0
75.5022 0.250334 0
75.8086 0.665997 0
75.8224 0.688139 0
75.572 0.546452 0
75.9215 0.597658 0
75.6364 0.24654 0
75.8566 0.753294 0
75.6556 0.0963051 0
75.8992 0.814515 0
75.9445 0.854452 0
75.4853 0.0687164 0
76.0242 0.789306 0
76.1255 1.07267 0
76.2805 1.10077 0
75.8936 0.203363 0
76.223 1.05474 0
76.4495 1.29063 0
76.0988 0.714895 0
76.7113 0.82465 0
76.0189 0.172824 0
76.3846 1.10224 0
76.1148 0.0748362 0
76.7818 1.38904 0
76.882 1.28661 0
75.969 0.0603902 0
76.9224 0.969432 0
77.1678 1.18366 0
77.4837 1.12603 0
76.374 0.0475394 0
77.6815 1.02533 0
77.7853 0.849469 0
76.5577 0.0417204 0
77.8645 0.933095 0
77.4566 0.158642 0
76.5759 0.236566 0
76.3806 0.188379 0
78.0862 0.692336 0
78.0466 0.134905 0
78.4298 0.0733226 0
76.2633 0.00289589 0
77.9945 -0.3552 0
78.4953 -0.658366 0
76.381 -0.0163556 0
77.7997 -0.373233 0
78.5277 -1.20695 0
77.4728 -0.88614 0
76.4747 -0.269657 0
78.4229 -1.52249 0
78.3205 -1.84988 0
77.272 -0.363307 0
77.0326 -2.04974 0
75.5329 -1.73883 0
78.184 -1.89671 0
75.6774 -0.223861 0
78.0426 -2.70276 0
75.8532 4.86327 0
76.2867 4.39267 0
72.6516 1.30708 0
75.8083 4.80978 0
74.3274 4.50953 0
75.2451 5.26828 0
73.0975 0.51048 0
74.6559 5.41058 0
73.9287 5.3865 0
72.1505 0.675431 0
73.8985 5.69839 0
77.9785 -3.02635 0
75.864 -0.133504 0
77.7851 -3.30237 0
76.9372 -3.63084 0
76.4254 -3.09528 0
75.2918 -0.174335 0
77.0305 -4.12148 0
73.1422 5.30105 0
76.4075 -5.01161 0
75.1534 -0.918711 0
76.2149 -4.82882 0
75.4359 -5.53997 0
71.3347 1.63689 0
75.1897 -5.40423 0
76.2507 -2.90255 0
75.7136 -4.88736 0
74.3317 -3.56232 0
73.6004 -0.577743 0
75.0276 -4.94833 0
74.4587 -5.22445 0
72.7062 5.5643 0
74.4834 -5.29577 0
74.2536 -0.297503 0
73.7582 -5.51726 0
73.2613 -6.00812 0
73.1183 -0.379024 0
72.491 -6.10846 0
72.9342 -4.49005 0
71.4944 -0.469576 0
71.8022 -6.19351 0
71.8674 -3.49823 0
73.0651 -2.69785 0
72.3049 -5.35309 0
71.4472 -5.623 0
73.2929 2.9549 0
70.6969 0.368209 0
72.8404 2.00911 0
71.9447 -0.0387834 0
71.0721 -6.0162 0
72.5208 5.28653 0
70.5469 0.263334 0
71.9861 4.53726 0
70.4591 -5.97059 0
71.5979 -1.25347 0
69.9226 -4.35796 0
71.995 5.9845 0
69.7622 1.43868 0
71.969 5.90732 0
70.4449 5.08527 0
69.9408 0.289805 0
70.9889 5.29606 0
70.3145 -4.55654 0
71.2632 -0.372332 0
69.86 -6.08373 0
69.9141 -5.88774 0
71.2053 5.66266 0
69.874 5.49373 0
69.4787 0.0205502 0
70.6059 5.64053 0
69.1466 3.52824 0
69.4917 1.64222 0
69.1794 -6.02323 0
69.7507 -0.804145 0
69.4434 -5.92254 0
68.9502 5.74313 0
68.7395 -5.55987 0
69.1271 -0.792617 0
68.9186 -2.48169 0
67.9515 -5.30279 0
69.9576 -2.94597 0
67.7955 -5.11238 0
68.7911 -0.226085 0
67.1413 -4.91052 0
68.6302 2.07786 0
69.0063 0.326869 0
68.6464 4.88011 0
68.6146 0.0865709 0
68.4679 5.66822 0
68.3452 5.35603 0
68.388 0.146037 0
67.786 4.69849 0
68.2699 0.0990865 0
68.0849 -4.60688 0
68.7949 -0.433628 0
69.0471 4.1939 0
67.7214 0.751179 0
67.5685 4.43756 0
67.0752 -4.90748 0
68.8975 -0.188802 0
65.8852 -4.14365 0
67.7456 -0.734838 0
66.4126 -4.14882 0
68.1568 1.93118 0
67.7793 0.308967 0
68.5894 -3.75221 0
67.7832 -0.293414 0
65.9814 -3.90073 0
67.0911 4.02038 0
67.0162 -3.08679 0
67.7951 -0.559574 0
66.1951 -3.36715 0
67.7328 2.31998 0
66.1783 1.47112 0
66.7141 3.4974 0
67.5231 -0.628654 0
66.1233 -3.68801 0
67.7132 0.697763 0
66.6701 4.64515 0
67.4848 -1.78122 0
67.7858 -0.214739 0
65.8898 -3.3719 0
66.5558 4.21727 0
67.6898 0.726108 0
66.4148 3.34543 0
66.2522 3.28486 0
67.7107 0.655623 0
65.701 2.94327 0
65.2871 -2.96858 0
67.7271 -0.571857 0
65.0376 -2.98045 0
66.743 -1.44945 0
67.7735 -0.43751 0
64.7187 -2.04172 0
65.6901 3.65191 0
67.5992 0.630018 0
66.5843 2.38887 0
65.0937 -1.81642 0
67.6259 -0.413311 0
64.6031 -1.69534 0
64.8363 2.68923 0
67.6145 0.398079 0
65.1028 2.56221 0
65.3221 2.09474 0
67.7902 0.0875472 0
64.7604 2.22518 0
65.5057 -1.08712 0
67.546 -0.455688 0
64.9597 -0.970481 0
64.1226 -0.601865 0
67.1157 -0.600558 0
64.2999 -0.505271 0
66.9224 0.733062 0
67.6812 0.162908 0
66.2953 1.78319 0
64.6795 1.76563 0
67.5322 0.100146 0
64.2333 1.16059 0
67.3186 -0.110422 0
67.7414 -0.251982 0
64.1882 -0.142926 0
64.531 -0.0204797 0
67.717 -0.0911139 0
66.1998 0.24468 0
64.8099 0.408736 0
67.7328 -0.111712 0
67.1197 -4.07663 0
67.8068 -0.687169 0
67.74 0.339597 0
67.9083 4.84131 0
68.3463 -5.53176 0
70.4362 -0.705392 0
69.349 0.705967 0
70.3846 5.92437 0
67.6773 0.510474 0
65.3364 3.49733 0
64.8177 -2.05037 0
67.6808 -0.442807 0
67.7593 -0.749913 0
67.3473 -2.68243 0
67.8027 0.675339 0
67.8725 0.461414 0
67.7024 0.0345515 0
64.6126 1.53928 0
68.5666 0.358445 0
68.0011 1.13036 0
68.1621 -1.02601 0
69.1728 -0.520958 0
73.1396 -0.8571 0
72.8734 -5.97225 0
74.1606 5.40064 0
72.8225 0.297596 0
67.5953 1.15117 0
68.9289 5.52445 0
68.0449 -5.05621 0
68.4981 -1.77747 0
66.9489 -1.04356 0
65.358 -0.139531 0
66.6142 4.147 0
67.7938 1.36285 0
67.6396 -1.23221 0
65.3603 -3.36855 0
77.5787 -3.75691 0
75.0537 -0.440342 0
74.7249 0.517304 0
77.357 3.11155 0
67.7821 -0.644732 0
67.8147 -0.122946 0
67.7717 0.35995 0
68.3555 0.572208 0
71.1672 0.491929 0
70.9875 2.82644 0
69.8469 -1.44786 0
72.058 -1.24349 0
70.244 3.40064 0
72.3213 5.63009 0
71.4915 -6.14262 0
70.7902 -1.38117 0
73.6568 1.10021 0
74.4502 3.42649 0
73.496 -1.9411 0
74.291 -0.0139287 0
76.3871 -0.0533678 0
78.4823 -0.172303 0
78.2542 0.814784 0
76.0338 0.0136511 0
76.104 0.00389412 0
76.9437 1.37259 0
78.1762 -0.611997 0
76.8765 -0.0260187 0
68.3881 -1.13189 0
68.038 -0.36765 0
67.975 0.849871 0
68.5106 0.737865 0
67.9064 0.801548 0
67.7953 0.57209 0
67.7715 -0.285212 0
67.84 -0.696471 0
75.7899 0.661703 0
76.678 1.37518 0
76.0029 -0.653331 0
76.0326 -0.0730028 0
66.2457 -0.727467 0
67.7361 -0.242029 0
67.3505 -0.27422 0
67.7179 -0.610202 0
67.7539 0.475779 0
67.6985 0.724025 0
75.9897 0.928528 0
75.787 0.155464 0
76.4902 -0.0057855 0
76.9639 -2.3004 0
70.188 -0.0171411 0
69.6752 -2.05628 0
70.3774 1.26241 0
69.4808 0.319814 0
67.6058 2.91465 0
67.254 5.11848 0
67.0594 -4.4802 0
67.8764 -2.41785 0
68.1906 -1.62458 0
67.3478 -1.65872 0
67.6706 3.29673 0
67.8598 1.67682 0
76.8949 -0.0328906 0
76.7014 0.0817996 0
76.3581 0.0293228 0
76.8852 0.674199 0
68.879 -3.85707 0
69.6276 -3.75353 0
69.4076 3.21898 0
69.845 5.90844 0
68.3968 -2.90122 0
69.2152 -1.70591 0
69.0886 2.20173 0
68.5454 1.18426 0
75.7905 0.677969 0
75.3213 0.127484 0
75.602 -0.0141781 0
74.773 -2.33994 0
67.2869 0.713206 0
67.7481 0.0776127 0
76.5741 -0.151655 0
77.4698 -0.623814 0
76.3089 0.390489 0
75.8594 0.0532605 0
68.2399 -0.707831 0
67.9492 -0.887468 0
68.4987 1.33583 0
67.9663 0.49396 0
67.8177 -0.364668 0
67.885 -0.508233 0
67.8638 0.515645 0
67.7731 0.355004 0
64.9087 1.28324 0
67.0266 1.13587 0
74.0818 -2.18391 0
76.5409 -4.57453 0
76.7571 3.91574 0
73.7796 1.52394 0
66.8835 -1.70398 0
65.3272 -2.0949 0
74.6248 0.23467 0
75.2493 1.17465 0
73.4205 0.180237 0
74.6911 1.62485 0
73.7213 -1.49353 0
73.9901 -0.243426 0
73.0534 -0.68429 0
73.2589 -0.015358 0
75.8743 -0.468817 0
75.9445 -1.35556 0
75.6559 0.34419 0
75.4286 0.0034722 0
67.7779 0.386847 0
67.5165 0.485522 0
66.6412 0.373313 0
65.0743 0.631743 0
67.6281 -0.278385 0
67.7406 -0.332768 0
67.2895 0.226959 0
67.2624 -0.464141 0
78.3648 -1.56128 0
75.9844 -1.08667 0
76.6173 1.57817 0
78.0529 1.48081 0
67.8886 -0.0696436 0
67.9394 -0.304547 0
67.8021 0.128018 0
68.0291 0.168853 0
74.6665 -0.415561 0
74.4699 -1.07482 0
75.2377 0.350841 0
74.7807 0.15426 0
73.0452 0.412821 0
73.2452 1.35639 0
73.0258 -0.32828 0
72.9573 -0.125699 0
68.0421 -0.577592 0
68.6305 -1.66035 0
68.2583 1.23036 0
68.0097 0.914372 0
68.5127 2.12783 0
67.4496 1.33795 0
67.7737 -1.39508 0
68.1831 -2.12495 0
76.8322 -0.031185 0
77.1496 1.12475 0
78.3823 -0.157389 0
77.5989 0.474424 0
67.5222 -0.714885 0
67.5947 -0.867813 0
67.622 0.761925 0
67.2917 0.924799 0
72.8332 1.39737 0
72.5085 0.355552 0
72.8391 -0.0792407 0
73.0373 -0.294871 0
72.674 2.90624 0
74.1903 4.79735 0
73.6775 -5.95025 0
73.4537 -2.32795 0
65.7166 -2.48937 0
67.3196 -2.60894 0
72.4412 -2.17787 0
72.8819 -0.783333 0
71.6818 0.345126 0
73.9509 2.11069 0
65.5411 3.33885 0
66.8391 2.0375 0
73.5502 -0.0855779 0
73.5318 -0.879674 0
74.4886 0.586791 0
74.3152 0.174543 0
75.3594 -0.232926 0
75.2341 -0.98746 0
75.5598 1.43288 0
74.8967 0.20476 0
71.2335 0.999882 0
69.977 0.251355 0
70.7615 -0.252154 0
71.2257 -2.224 0
76.2254 0.477935 0
76.1011 0.920905 0
77.7256 -1.72297 0
77.4071 -0.189115 0
70.5384 -2.7469 0
71.3115 -1.3078 0
70.7691 1.8846 0
72.6577 4.0989 0
72.12 0.613445 0
72.155 0.104168 0
72.7872 -0.0820997 0
72.898 -0.39781 0
73.0251 -0.176866 0
73.1448 -0.00975712 0
73.7327 0.233673 0
73.3035 1.10219 0
68.9828 0.370977 0
68.8242 0.980741 0
68.9934 -0.873815 0
69.558 -0.253767 0
70.0723 1.98118 0
68.9725 1.44186 0
68.4745 -2.13495 0
67.9358 -2.17291 0
76.4188 -0.176011 0
76.2628 -0.105144 0
76.3507 0.26146 0
77.0654 0.464765 0
68.9557 2.6938 0
69.2902 1.83503 0
68.5131 -0.658632 0
68.412 -0.242663 0
68.3666 0.2017 0
68.8177 0.656689 0
66.7186 -0.622985 0
67.3953 -0.861385 0
78.0011 -2.44575 0
76.09 -1.29364 0
75.5142 2.57699 0
77.5787 2.65223 0
67.725 -0.683559 0
67.8273 -0.338276 0
67.692 0.462595 0
67.7705 0.7215 0
68.0118 0.0682925 0
67.9866 0.396002 0
68.04 -0.213705 0
68.1104 -0.0116682 0
65.9539 -0.187735 0
64.1792 0.141206 0
72.6344 2.22631 0
75.5259 2.07816 0
74.6884 -1.72078 0
75.1298 -3.5093 0
67.4649 1.52572 0
67.1644 0.833898 0
67.7892 -0.0472062 0
67.5004 -0.00573605 0
69.5444 4.7497 0
67.9242 2.92199 0
69.075 -3.09958 0
68.3874 -5.73679 0
67.292 0.561724 0
67.6457 0.55175 0
75.685 0.43229 0
75.8029 0.663807 0
75.588 -2.41635 0
75.8397 -0.423234 0
72.8356 -0.0873066 0
72.9035 -0.0683129 0
73.0486 0.174966 0
72.6345 0.954366 0
78.3434 0.627523 0
77.3433 1.06504 0
77.2229 0.136515 0
78.2116 0.403657 0
67.3681 0.114882 0
66.9193 -1.27929 0