# vtk DataFile Version 3.0
Unstructured Grid for Triangles
ASCII
DATASET UNSTRUCTURED_GRID
POINTS 29612 DOUBLE
-0.000272397 1.23686e-05 0
-0.000295789 9.5838e-06 0
-0.000277865 -3.1235e-06 0
0.002024 0.0005 0
0.00203975 0.00049875 0
0.00205 0.0005 0
0.00203975 -0.00049875 0
0.002024 -0.0005 0
0.00205 -0.0005 0
0.0020295 0.0004975 0
0.0020295 -0.0004975 0
0.00201925 0.00049625 0
0.00201925 -0.00049625 0
-0.000529747 -0.000479887 0
-0.00055 -0.0005 0
-0.000524 -0.0005 0
-0.000505983 -0.000484325 0
-0.000498 -0.0005 0
-0.000472 -0.0005 0
-0.000483864 -0.000487761 0
-0.000446 -0.0005 0
-0.000459 -0.000484239 0
-0.000429453 -0.000424878 0
-0.000447486 -0.000420717 0
-0.000441829 -0.000436609 0
-0.000512578 -0.000462101 0
-0.000493078 -0.000453594 0
-0.00050706 -0.000439006 0
-0.000419243 -0.000477545 0
-0.000440307 -0.000471837 0
-0.00043691 -0.000486724 0
-0.000516129 -0.000420948 0
-0.000495355 -0.000415432 0
-0.000511646 -0.00040128 0
-0.000394697 -0.000481197 0
-0.000406302 -0.000455143 0
-0.000537257 -0.000388197 0
-0.000531099 -0.000407297 0
-0.000523982 -0.000388328 0
-0.000370063 -0.000472956 0
-0.000368 -0.0005 0
-0.00035308 -0.000485302 0
-0.0005072 -0.00037867 0
-0.000485506 -0.000383975 0
-0.000490949 -0.000359622 0
-0.000337127 -0.000484331 0
-0.000316 -0.0005 0
-0.000326495 -0.00047415 0
-0.00055 -0.00035 0
-0.000531201 -0.000370361 0
-0.000528367 -0.000346817 0
-0.000363898 -0.000448809 0
-0.000383315 -0.000460336 0
-3.26269e-05 -0.000415503 0
-5.99662e-05 -0.000409556 0
-5.46944e-05 -0.000429488 0
-0.000529747 0.000479887 0
-0.00055 0.0005 0
-0.00055 0.000475 0
-0.00055 0.00045 0
-0.000534834 0.000429171 0
-0.000526943 0.000442611 0
-0.000534026 0.000460176 0
-0.000531099 0.000407297 0
-0.000511672 0.000401178 0
-0.000516129 0.000420948 0
-0.000524 0.0005 0
-0.000505983 0.000484325 0
-0.000531201 0.000370361 0
-0.0005072 0.00037867 0
-0.000523982 0.000388328 0
-0.00048341 0.000469132 0
-0.000483679 0.000487539 0
-0.000528367 0.000346817 0
-0.00055 0.000325 0
-0.000525657 0.000328474 0
-0.000498 0.0005 0
-0.000530382 0.0003125 0
-0.000419243 0.000477545 0
-0.000440015 0.00047335 0
-0.000425917 0.000463678 0
-0.000435138 0.000262661 0
-0.000414982 0.000274462 0
-0.000435654 0.000285217 0
-0.000459 0.000484239 0
-0.000436852 0.000487027 0
-0.000446 0.0005 0
-0.000533308 0.000292503 0
-0.00055 0.000275 0
-0.000523377 0.000276953 0
-0.000425282 0.000446352 0
-0.000409368 0.000435728 0
-0.000406302 0.000455143 0
0.002009 0.000495 0
0.001998 0.0005 0
0.00199875 0.00049375 0
0.0019885 0.0004925 0
0.001972 0.0005 0
0.00197825 0.00049125 0
0.001968 0.00049 0
0.00195775 0.00048875 0
0.001946 0.0005 0
0.0019475 0.0004875 0
0.00193725 0.00048625 0
0.00192 0.0005 0
0.001927 0.000485 0
0.00191675 0.00048375 0
0.0019065 0.0004825 0
0.001894 0.0005 0
0.00189625 0.00048125 0
0.001886 0.00048 0
0.001868 0.0005 0
0.00187575 0.00047875 0
0.0018655 0.0004775 0
0.00185515 0.00048575 0
0.001842 0.0005 0
0.001845 0.000475 0
0.00185525 0.00047625 0
0.00182564 0.0004829 0
0.001816 0.0005 0
0.0018245 0.0004725 0
0.00183475 0.00047375 0
0.00181425 0.00047125 0
0.00180295 0.000482657 0
0.00179 0.0005 0
0.00179375 0.00046875 0
0.001804 0.00047 0
0.00178168 0.000480619 0
0.001764 0.0005 0
0.00177325 0.00046625 0
0.0017835 0.0004675 0
0.00176428 0.000476631 0
0.001763 0.000465 0
0.001738 0.0005 0
0.001751 0.000484164 0
0.00175275 0.00046375 0
0.00174025 0.000475632 0
0.001712 0.0005 0
0.00172615 0.000478449 0
0.001722 0.00046 0
0.00173225 0.00046125 0
0.0017015 0.0004575 0
0.00171243 0.00047381 0
0.00169554 0.000479999 0
0.001686 0.0005 0
0.00167507 0.000479751 0
0.00168498 0.000464861 0
0.00166 0.0005 0
0.0016558 0.000471459 0
0.00167135 0.000462887 0
0.001681 0.000455 0
0.0016605 0.0004525 0
0.00167075 0.00045375 0
0.00164059 0.000461599 0
0.0016394 0.000479551 0
0.00162881 0.00046615 0
0.00162975 0.00044875 0
0.00165025 0.00045125 0
0.00164 0.00045 0
0.00161754 0.000458641 0
0.00161722 0.000478101 0
0.00159956 0.000458294 0
0.00160925 0.00044625 0
0.0016195 0.0004475 0
0.00157667 0.000460322 0
0.00158875 0.00044375 0
0.00159194 0.000480155 0
0.001599 0.000445 0
0.0015785 0.0004425 0
0.00155808 0.000456757 0
0.00155647 0.000476701 0
0.00154059 0.000466642 0
0.00153756 0.000450083 0
0.00154839 0.000450446 0
0.00156825 0.00044125 0
0.00151954 0.000480508 0
0.00154052 0.00048477 0
0.00153 0.0005 0
0.00154775 0.00043875 0
0.00152142 0.000456625 0
0.00152821 0.000445753 0
0.0015375 0.0004375 0
0.001504 0.0005 0
0.00149644 0.000485168 0
0.00151787 0.000443178 0
0.00152725 0.00043625 0
0.00150675 0.00043375 0
0.001517 0.000435 0
0.00148119 0.000450887 0
0.00148072 0.000475756 0
0.00146584 0.000463516 0
0.00150008 0.00046396 0
0.00149351 0.00044543 0
0.0015061 0.000446252 0
0.001476 0.00043 0
0.00148625 0.00043125 0
0.00146492 0.000482975 0
0.00144888 0.000473562 0
0.00146676 0.000444259 0
0.00145255 0.000453656 0
0.00145652 0.000438669 0
0.00141401 0.000479821 0
0.001426 0.0005 0
0.0014 0.0005 0
0.00144374 0.000438862 0
0.0014555 0.0004275 0
0.001435 0.000425 0
0.00144525 0.00042625 0
0.00142746 0.000438121 0
0.00141288 0.000443191 0
0.00141707 0.000432778 0
0.0013921 0.000438992 0
0.00140355 0.00045932 0
0.00138302 0.00045922 0
0.00142912 0.000458869 0
0.00140592 0.000430037 0
0.0014145 0.0004225 0
0.00136458 0.00045869 0
0.00137106 0.00044063 0
0.001394 0.00042 0
0.00138259 0.000428915 0
0.00137484 0.000477094 0
0.00139166 0.000478902 0
0.0013586 0.000478984 0
0.00133449 0.000478649 0
0.00134717 0.000461848 0
0.00137256 0.000425134 0
0.00135323 0.000424541 0
0.00136325 0.00041625 0
0.00136122 0.00042876 0
0.00131206 0.000447284 0
0.00133168 0.000456738 0
0.00131773 0.000465243 0
0.00134756 0.000440343 0
0.00132747 0.000436463 0
0.00133483 0.000426786 0
0.00131081 0.00041867 0
0.00132382 0.000422815 0
0.00131507 0.00043122 0
0.00131059 0.000480123 0
0.0013325 0.0004125 0
0.0012915 0.0004075 0
0.0012982 0.000418199 0
0.00128915 0.000426216 0
0.00126366 0.000447574 0
0.00127331 0.000430908 0
0.00128781 0.000444872 0
0.00125336 0.000428376 0
0.00130218 0.000431077 0
0.00127894 0.000416344 0
0.00124774 0.000469608 0
0.00127668 0.000464148 0
0.00126591 0.00048331 0
0.00126722 0.000418415 0
0.00125768 0.000411931 0
0.00124326 0.000413546 0
0.0012505 0.0004025 0
0.00122408 0.000450118 0
0.00120276 0.000447432 0
0.0012139 0.000432235 0
0.00124336 0.000444132 0
0.00123056 0.000427595 0
0.00122977 0.000409049 0
0.0012185 0.000469217 0
0.00122676 0.000485947 0
0.00120525 0.000486094 0
0.00121479 0.000413153 0
0.00119547 0.000424221 0
0.00120249 0.000407448 0
0.00119925 0.00039625 0
0.00119346 0.000406114 0
0.00117479 0.000447279 0
0.00114726 0.000445259 0
0.0011571 0.000427814 0
0.00119443 0.000466611 0
0.00117447 0.000421596 0
0.00118421 0.00040752 0
0.00117409 0.000404437 0
0.00116775 0.000470073 0
0.001179 0.0004855 0
0.00115473 0.000484802 0
0.0011685 0.0003925 0
0.00117875 0.00039375 0
0.00115454 0.000400551 0
0.001148 0.00039 0
0.00115825 0.00039125 0
0.00111703 0.000423398 0
0.00113786 0.000426731 0
0.00112589 0.000443871 0
0.00113234 0.000406671 0
0.00114754 0.000413371 0
0.001106 0.000442326 0
0.00109703 0.000424261 0
0.0011275 0.0003875 0
0.00113775 0.00038875 0
0.00110211 0.000480875 0
0.00108244 0.000471951 0
0.00109312 0.000458413 0
0.00111755 0.000399116 0
0.0010944 0.000392972 0
0.00110415 0.000405876 0
0.00108839 0.000407536 0
0.00106472 0.000476905 0
0.00107274 0.000457868 0
0.00108011 0.000392415 0
0.00106885 0.000404365 0
0.00106625 0.000388708 0
0.00105286 0.000419254 0
0.00105055 0.000395469 0
0.00104215 0.000439764 0
0.00106346 0.000440629 0
0.00100945 0.000451249 0
0.00102825 0.00045614 0
0.00101189 0.000468452 0
0.00107625 0.00038125 0
0.00105575 0.00037875 0
0.001066 0.00038 0
0.00103352 0.000476905 0
0.00101803 0.00048465 0
0.00103685 0.000389398 0
0.0010245 0.00038825 0
0.00103525 0.00037625 0
0.00101092 0.000399779 0
0.00101267 0.000382619 0
0.00101382 0.00042025 0
0.00103187 0.000405286 0
0.00103359 0.000424605 0
0.000987383 0.00045447 0
0.000999411 0.000435161 0
0.0009744 0.000433145 0
0.0010045 0.0003725 0
0.00101475 0.00037375 0
0.000970845 0.000465215 0
0.000952614 0.000467664 0
0.000961768 0.000449944 0
0.00099729 0.000387704 0
0.000978901 0.00039598 0
0.000985823 0.000381492 0
0.000962289 0.000393709 0
0.000974259 0.000381279 0
0.00097375 0.00036875 0
0.000963045 0.000376631 0
0.000958 0.0005 0
0.000932 0.0005 0
0.000947542 0.00048457 0
0.000949675 0.000385245 0
0.000936214 0.000389472 0
0.000940006 0.000374906 0
0.000966411 0.000412573 0
0.000944241 0.000407079 0
0.000903569 0.000424993 0
0.000921701 0.000402409 0
0.000927439 0.000427744 0
0.000889795 0.000409067 0
0.000903071 0.00040248 0
0.000925447 0.000377721 0
0.00093275 0.00036375 0
0.000907708 0.000387127 0
0.000911303 0.000370839 0
0.000911933 0.000455145 0
0.000930678 0.000473279 0
0.000911886 0.000482603 0
0.000887724 0.000388076 0
0.000899595 0.000375116 0
0.000902 0.00036 0
0.000889241 0.00036954 0
0.000836977 0.000459472 0
0.000836223 0.000483578 0
0.000820467 0.000474142 0
0.000871227 0.000403557 0
0.000861 0.000355 0
0.000868368 0.000365714 0
0.00085484 0.00036588 0
0.000847735 0.000402845 0
0.000823121 0.000421599 0
0.000826582 0.000398147 0
0.000846943 0.00042454 0
0.000838832 0.000378613 0
0.000835569 0.000363808 0
0.000844098 0.00036291 0
0.00085075 0.00035375 0
0.000851465 0.000477164 0
0.00083025 0.00035125 0
0.000822824 0.000368659 0
0.00081446 0.000357362 0
0.000805884 0.000371794 0
0.000753471 0.000477524 0
0.000738313 0.000473927 0
0.000739102 0.000461526 0
0.00079826 0.000358588 0
0.000788607 0.000376287 0
0.000781733 0.000357987 0
0.000816783 0.000384471 0
0.000807975 0.000404095 0
0.000752138 0.000404775 0
0.000767682 0.000417043 0
0.000749617 0.000421803 0
0.000752903 0.000384008 0
0.000738293 0.000393136 0
0.000772614 0.000394048 0
0.00076863 0.000371878 0
0.000765995 0.000354121 0
0.000779 0.000345 0
0.00071811 0.000453059 0
0.000738069 0.000437967 0
0.000752085 0.000365972 0
0.000728123 0.000374583 0
0.000741845 0.000354664 0
[...]
CELL_DATA 58684
VECTORS velocity DOUBLE
66.2225 0.239077 0
68.5827 -0.000127916 0
68.6026 0.000267452 0
68.5934 -3.25953e-05 0
68.6217 0.000518878 0
68.6007 -0.00272693 0
68.6414 0.00809397 0
67.8851 0.0138464 0
67.9334 -0.00407289 0
68.1368 0.0101434 0
68.3099 0.0109463 0
68.4182 -0.283394 0
68.0224 -0.0158466 0
68.5039 -0.0871879 0
68.0044 -0.0120149 0
68.7572 -0.115031 0
67.9008 0.024187 0
69.121 -0.103077 0
68.1212 -0.0883804 0
69.5558 -0.0550681 0
67.8989 0.0170381 0
69.0937 -0.25341 0
73.4284 -1.40306 0
67.8211 -0.00478515 0
67.8652 -0.0255912 0
67.8182 -0.0128887 0
67.9681 -0.0168488 0
67.9301 -5.45227e-05 0
67.9392 -0.0273126 0
68.1158 0.00810391 0
67.9126 -0.0234503 0
68.0495 0.0175676 0
67.9073 -0.0476088 0
68.5802 0.0959192 0
68.5091 0.766174 0
68.3886 0.0557475 0
67.9205 0.00189329 0
68.6819 0.237538 0
68.604 -0.0019336 0
68.6111 0.000434206 0
68.6263 -0.00463887 0
68.6287 -0.00405511 0
68.6378 0.000905465 0
68.6553 -0.00489238 0
68.6599 -0.00672324 0
68.6647 -0.00247231 0
68.6761 0.00187524 0
68.6925 -0.00866665 0
68.696 -0.00552418 0
68.7093 0.0022676 0
68.7312 -0.0104172 0
68.7364 -0.0106047 0
68.7423 -0.00366489 0
68.7572 0.00286765 0
68.776 -0.013909 0
68.7794 -0.00854679 0
68.7958 0.00201367 0
68.8231 -0.0209336 0
68.8276 -0.0192049 0
68.8348 -0.00919272 0
68.8553 0.00188397 0
68.867 -0.0262789 0
68.8863 -0.0171117 0
68.913 0.000535171 0
68.9218 -0.0323805 0
68.9258 -0.0306692 0
68.9416 -0.0231394 0
68.9583 -0.000455994 0
68.9662 -0.0403401 0
68.9813 -0.0280032 0
68.9984 -0.00255952 0
69.0101 -0.0519495 0
69.0216 -0.0399013 0
69.0459 -0.0687155 0
69.0502 -0.00309446 0
69.064 -0.0562232 0
69.0763 -0.0386448 0
69.0941 -0.00767908 0
69.1087 -0.0878067 0
69.1469 -0.0740675 0
69.1122 -0.0738216 0
69.1452 -0.00853182 0
69.1593 -0.0527442 0
69.1479 -0.101291 0
69.2047 -0.0698248 0
69.1873 -0.0957828 0
69.2005 -0.121798 0
69.2247 -0.15106 0
69.238 -0.114729 0
69.2781 -0.15115 0
69.2271 -0.128779 0
69.2653 -0.178998 0
69.2744 -0.148732 0
69.2842 -0.142823 0
69.2941 -0.201391 0
69.3356 -0.197295 0
69.2851 -0.161783 0
69.3269 -0.220853 0
69.3528 -0.248101 0
69.3288 -0.186467 0
69.3599 -0.231537 0
69.3422 -0.215692 0
69.35 -0.0679772 0
69.3723 -0.257638 0
69.4032 -0.248653 0
69.3819 -0.271863 0
69.3537 -0.0660799 0
69.406 -0.282982 0
69.4344 -0.31359 0
69.3751 -0.182332 0
69.4005 -0.189723 0
69.3878 -0.259553 0
69.4341 -0.325784 0
69.3793 -0.135357 0
69.4577 -0.290794 0
69.4143 -0.190866 0
69.3825 -0.0253153 0
69.458 -0.327132 0
69.4673 -0.356702 0
69.4902 -0.314003 0
69.4543 -0.229912 0
69.4101 -0.180987 0
69.4876 -0.344333 0
69.4536 -0.221347 0
69.4896 -0.345566 0
69.4187 -0.129355 0
69.5121 -0.313347 0
69.431 -0.124494 0
69.5126 -0.335601 0
69.5131 -0.360173 0
69.4718 -0.198603 0
69.5058 -0.298467 0
69.4276 -0.144526 0
69.5205 -0.339154 0
69.4322 -0.116461 0
69.5238 -0.355153 0
69.5375 -0.355006 0
69.5111 -0.252519 0
69.5053 -0.277255 0
69.5146 -0.300235 0
69.535 -0.324454 0
69.4287 -0.12424 0
69.5477 -0.340647 0
69.5572 -0.370657 0
69.5126 -0.24105 0
69.458 -0.18794 0
69.5389 -0.320555 0
69.5408 -0.35409 0
69.4415 -0.0802382 0
69.5589 -0.376285 0
69.5572 -0.405661 0
69.5335 -0.276169 0
69.4938 -0.216492 0
69.5424 -0.359348 0
69.5528 -0.408159 0
69.4646 -0.0866528 0
69.565 -0.460523 0
69.5868 -0.495043 0
69.5733 -0.372531 0
69.5687 -0.425252 0
69.5975 -0.407278 0
69.5899 -0.531026 0
69.5446 -0.162518 0
69.582 -0.515368 0
69.6181 -0.549664 0
69.6043 -0.188982 0
69.6758 -0.661088 0
69.7003 -0.626014 0
69.6906 -0.422777 0
69.7841 -0.325982 0
69.6776 -0.680919 0
69.7173 -0.751166 0
69.745 -0.163347 0
69.7692 -0.801241 0
69.8462 -0.834363 0
69.7294 -0.615332 0
69.9018 -0.386716 0
69.9552 -0.509262 0
69.8896 -0.949484 0
70.0083 -0.331516 0
69.9796 -0.910709 0
70.0091 -0.91229 0
70.0536 -1.05479 0
70.0535 -0.0160296 0
70.2528 -1.03834 0
70.0179 -0.821956 0
70.2787 -0.713763 0
70.4185 -0.817396 0
70.3199 -1.14857 0
70.4413 -1.14254 0
70.2753 -0.255376 0
70.4968 -1.09071 0
70.5583 -1.25451 0
70.5977 -1.2083 0
70.846 -0.240282 0
70.5947 -0.932848 0
70.9572 -1.29048 0
71.0651 -0.927213 0
70.8882 -0.788441 0
71.0476 -1.30368 0
71.056 -1.32658 0
70.8448 -0.224374 0
71.2652 -1.36369 0
71.3557 -1.25192 0
71.6791 -0.187149 0
71.5349 -1.26101 0
71.2449 -0.954046 0
71.7347 -0.711383 0
71.8745 -0.865351 0
71.6577 -1.09766 0
71.7405 -1.2755 0
71.7764 -0.404829 0
72.0732 -1.07893 0
72.0021 -1.30376 0
72.384 -1.14058 0
72.1658 -0.00211885 0
72.215 -0.925807 0
72.397 -1.12289 0
71.995 -0.286765 0
72.5024 -1.12904 0
72.6061 -0.604565 0
72.581 -1.17301 0
72.8379 -0.293264 0
72.824 -0.866105 0
72.7812 -1.00626 0
72.6169 -0.179376 0
73.0135 -0.991244 0
73.2133 -0.872238 0
72.9907 -0.818252 0
73.0774 -0.484511 0
73.2555 -0.952976 0
73.3061 -0.42823 0
73.6454 -0.0770249 0
73.1643 -0.785338 0
73.3828 -0.912261 0
73.4714 -0.967182 0
73.6805 -0.383003 0
73.6347 -0.879502 0
73.7754 -0.943565 0
73.8926 -0.145559 0
73.9508 -0.994937 0
73.8066 -1.02582 0
73.8405 -0.845669 0
74.0932 -0.48796 0
74.2096 -0.586841 0
73.9693 -1.13323 0
74.5547 0.000998525 0
74.0765 -1.23801 0
74.2291 -1.25896 0
74.1732 -1.30252 0
74.8758 -0.436338 0
74.5573 -1.24446 0
74.7331 -1.37997 0
75.0525 0.000375103 0
74.8052 -1.65272 0
75.2867 -1.63745 0
74.9752 -1.0428 0
75.0757 -0.529527 0
75.1008 -1.7662 0
75.2699 -0.651674 0
75.5447 -0.0722624 0
75.3119 -1.35227 0
75.509 -1.82951 0
75.8323 -1.79815 0
75.7057 -0.278597 0
76.2029 -1.436 0
75.9977 -1.75938 0
75.8449 -0.102139 0
76.2766 -1.91258 0
76.6772 -1.81601 0
76.6285 -0.885602 0
75.9891 0.0141836 0
77.0724 -1.58451 0
76.6517 -0.240343 0
76.9905 -0.170734 0
77.0806 -1.31341 0
76.9175 -0.822628 0
77.8018 -1.04119 0
76.2791 0.131174 0
77.6878 -1.2645 0
77.5651 -0.33742 0
78.1659 -0.385472 0
76.1106 0.046009 0
78.3539 0.537474 0
78.1689 0.797546 0
75.671 0.123233 0
78.542 0.0673991 0
78.6446 0.708311 0
76.6295 1.01503 0
76.2231 0.43889 0
77.547 0.580807 0
78.6025 1.30021 0
75.8502 0.236562 0
78.2108 2.14723 0
78.5402 1.53363 0
78.5383 1.76354 0
75.473 1.01792 0
77.2954 2.25998 0
78.1481 2.51144 0
75.4581 0.174004 0
77.982 2.95323 0
77.9262 2.78263 0
77.0608 3.95866 0
74.1447 0.241569 0
77.7606 3.82711 0
76.4321 2.6625 0
75.1793 1.10432 0
75.0141 2.1315 0
77.5932 4.13172 0
76.856 4.4221 0
74.4898 0.417598 0
76.6612 5.0197 0
68.6506 0.002412 0
68.6606 -0.000338759 0
68.6881 0.0105113 0
68.6916 0.00890653 0
68.7084 -0.000781007 0
68.7416 0.0121337 0
68.7471 0.0148415 0
68.7546 0.00834867 0
68.7747 -0.00162236 0
68.8016 0.0187471 0
68.8055 0.0123557 0
68.8247 -0.00189999 0
68.8592 0.0204563 0
68.8645 0.0205049 0
68.872 0.0109321 0
68.8936 -0.00237615 0
68.9204 0.0252273 0
68.9244 0.0176049 0
68.9462 -0.00125114 0
68.984 0.0329941 0
68.9888 0.0300352 0
69.0308 0.0393189 0
68.9972 0.0139522 0
69.0508 0.0234781 0
69.0957 0.0355697 0
69.0594 0.0216244 0
69.1087 0.0336864 0
69.1254 0.025001 0
69.1466 0.0428907 0
69.1131 0.0248647 0
69.1638 0.0267603 0
69.1885 0.0492957 0
69.1624 0.0244933 0
69.2201 0.055782 0
69.2227 0.0509404 0
69.2326 0.0390332 0
69.2049 0.0294971 0
69.2337 0.0419651 0
69.258 0.0403726 0
69.2412 0.0292983 0
69.2772 0.0725147 0
69.2644 0.0300605 0
69.2824 0.0496842 0
69.2678 0.038903 0
69.2799 0.0649145 0
69.3049 0.0751337 0
69.2936 0.0420491 0
69.2931 0.0674329 0
69.3112 0.0831074 0
69.305 0.0916089 0
69.2945 0.0586975 0
69.2946 0.0693539 0
69.309 0.09081 0
69.3122 0.123257 0
69.2825 0.0688397 0
69.3039 0.109008 0
69.3064 0.13286 0
69.2529 0.0816421 0
69.2721 0.0942112 0
69.2928 0.150226 0
69.2816 0.150545 0
69.2414 0.10477 0
69.2465 0.0739235 0
69.2512 0.148374 0
69.2653 0.0381974 0
69.2505 0.180949 0
69.2598 0.222095 0
69.2492 0.180438 0
69.2379 0.109253 0
69.2467 0.230856 0
69.2432 0.213794 0
69.184 0.116048 0
69.2204 0.190226 0
69.2132 0.23943 0
69.2103 0.26893 0
69.2033 0.0616053 0
69.1997 0.199669 0
69.221 0.317962 0
69.2054 0.162859 0
69.2233 0.297047 0
69.2201 0.356766 0
69.1969 0.260175 0
69.2035 0.115761 0
69.2241 0.325752 0
69.2416 0.365607 0
69.2082 0.095048 0
69.2499 0.406663 0
69.2143 0.299499 0
69.2782 0.356892 0
69.2285 0.246214 0
69.2838 0.444135 0
69.3528 0.535347 0
69.2963 0.144911 0
69.2989 0.363427 0
69.4026 0.562442 0
69.352 0.411004 0
69.2761 0.18367 0
69.4191 0.533006 0
69.4374 0.557389 0
69.3738 0.137834 0
69.4656 0.253282 0
69.494 0.489744 0
69.5311 0.626555 0
69.4194 0.337124 0
69.5828 0.60569 0
69.6135 0.637641 0
69.6331 0.218657 0
69.5912 0.398476 0
69.6991 0.684384 0
69.6878 0.579953 0
69.5172 0.194075 0
69.7189 0.640753 0
69.7971 0.663585 0
69.7551 0.262771 0
69.7641 0.572215 0
69.9224 0.754914 0
69.8831 0.567524 0
69.6677 0.19318 0
69.9535 0.686217 0
70.0344 0.756329 0
69.839 0.230534 0
69.9831 0.588867 0
69.9352 0.272843 0
70.0366 0.574788 0
69.9146 0.346992 0
70.1162 0.744989 0
70.1624 0.670403 0
69.9646 0.184105 0
70.1317 0.650763 0
70.2147 0.681159 0
70.0281 0.168453 0
70.0915 0.560042 0
70.1568 0.557018 0
70.2398 0.633094 0
70.0345 0.102141 0
70.2242 0.555774 0
70.3122 0.636577 0
70.2444 0.522507 0
70.0949 0.167878 0
70.2801 0.497715 0
70.0821 0.224321 0
70.2148 0.526519 0
70.3069 0.569697 0
70.3776 0.581813 0
70.3639 0.568419 0
70.0787 0.0212346 0
70.4268 0.598804 0
70.4229 0.582157 0
70.3795 0.512038 0
70.295 0.27786 0
70.3753 0.291954 0
70.4248 0.558017 0
70.1983 0.185874 0
70.4984 0.601141 0
70.4652 0.595542 0
70.4631 0.558843 0
70.3445 0.181456 0
70.5093 0.616863 0
70.6456 0.742273 0
70.4935 0.336468 0
70.4641 0.343662 0
70.5864 0.653297 0
70.7546 0.816738 0
70.3734 0.213764 0
70.8119 0.865829 0
70.8422 0.878931 0
70.7264 0.194972 0
71.0576 1.07549 0
71.0939 1.05185 0
71.2555 1.00441 0
71.0393 0.435675 0
70.9608 0.474243 0
71.065 1.06141 0
70.838 0.301921 0
71.3383 1.30318 0
71.4188 1.27144 0
71.5124 1.25929 0
71.2228 0.184595 0
71.7724 1.48349 0
71.8057 1.55783 0
71.6889 0.835642 0
72.2465 1.25469 0
71.8455 0.704387 0
71.9514 1.52705 0
71.6434 0.411934 0
72.3329 1.83764 0
72.3781 1.78972 0
71.766 0.364854 0
72.6251 1.69469 0
73.055 1.95174 0
72.8388 1.9302 0
73.0086 0.427016 0
73.6773 2.06138 0
73.7807 2.2425 0
72.6338 1.27662 0
73.636 1.62726 0
72.958 0.767901 0
74.2939 2.35831 0
73.5192 0.242522 0
74.419 2.23982 0
74.432 2.11374 0
73.0751 0.198496 0
74.2518 1.89534 0
75.176 2.15844 0
75.4016 2.11945 0
74.4793 0.532805 0
75.5503 2.00808 0
75.6532 2.14668 0
74.2093 1.35907 0
75.7541 1.28539 0
74.8552 0.490935 0
75.9704 2.00622 0
74.969 0.174773 0
76.251 1.7798 0
76.4114 1.68114 0
74.5731 0.142671 0
76.1193 1.39774 0
76.7963 1.32693 0
77.0212 1.17884 0
75.4882 0.28383 0
76.8197 1.13097 0
77.1479 0.974258 0
76.3318 1.1455 0
76.9875 0.496735 0
75.7119 0.179043 0
76.9033 0.949112 0
75.8575 0.0604862 0
77.3701 0.738118 0
77.4559 0.529162 0
75.6215 0.0767969 0
77.2218 0.239658 0
77.5441 0.165539 0
77.6774 -0.00906646 0
76.2085 -0.0709636 0
77.7161 -0.231209 0
77.7573 -0.322245 0
76.4099 -0.23017 0
77.7423 -0.377869 0
77.267 -0.615958 0
76.5028 -0.0732873 0
76.2497 0.0332051 0
77.7818 -0.608202 0
77.7313 -0.872712 0
77.9183 -1.03264 0
76.0798 -0.015211 0
77.5712 -1.18747 0
77.8913 -1.52608 0
76.2277 -0.10743 0
77.4791 -1.16474 0
77.8833 -1.89485 0
77.1176 -1.4473 0
76.3445 -0.53619 0
77.8147 -2.10593 0
77.7298 -2.33988 0
77.042 -0.960433 0
76.7399 -2.35096 0
75.6224 -1.84865 0
77.6729 -2.32515 0
75.6779 -0.320149 0
77.5482 -2.98443 0
76.1376 5.34015 0
76.5622 4.89153 0
73.3935 1.29345 0
76.103 5.23355 0
74.7316 4.73967 0
75.5046 5.68535 0
73.8058 0.513786 0
74.9336 5.74694 0
74.2655 5.60274 0
72.9929 0.644704 0
74.1875 5.98614 0
77.5151 -3.22809 0
75.8342 -0.193373 0
77.3732 -3.45238 0
76.7281 -3.67047 0
76.2806 -3.1763 0
75.4099 -0.196229 0
76.8018 -4.10944 0
73.5801 5.39619 0
76.295 -4.87649 0
75.3087 -1.0017 0
76.1357 -4.71498 0
75.4805 -5.34449 0
72.2196 1.54435 0
75.2752 -5.19977 0
76.1371 -2.99363 0
75.7281 -4.72977 0
74.603 -3.43037 0
74.079 -0.575912 0
75.1689 -4.75414 0
74.6901 -4.97627 0
73.1205 5.66758 0
74.6948 -5.05883 0
74.6048 -0.308097 0
74.0905 -5.21224 0
73.6341 -5.68604 0
73.6929 -0.36479 0
72.9704 -5.74548 0
73.4259 -4.18382 0
72.337 -0.425293 0
72.344 -5.81724 0
72.5907 -3.15253 0
73.6056 -2.52332 0
72.8489 -4.99636 0
72.0957 -5.21365 0
73.8813 3.0171 0
71.6605 0.336197 0
73.5465 2.00122 0
72.7417 -0.0383965 0
71.7174 -5.61212 0
72.9563 5.3264 0
71.5102 0.241065 0
72.5919 4.47825 0
71.1698 -5.55372 0
72.4308 -1.09827 0
70.8021 -3.9308 0
72.3699 6.0654 0
70.7274 1.26696 0
72.3552 5.9623 0
71.1366 4.93985 0
70.9216 0.255656 0
71.5269 5.21486 0
71.1476 -4.13971 0
72.1491 -0.31544 0
70.6264 -5.67263 0
70.6999 -5.4688 0
71.7127 5.62379 0
70.5392 5.35747 0
70.4446 0.0154777 0
71.1727 5.55865 0
70.0783 3.28167 0
70.4642 1.42968 0
70.0051 -5.61302 0
70.7769 -0.672996 0
70.2624 -5.50227 0
69.5732 5.60639 0
69.6306 -5.14934 0
70.1723 -0.631387 0
70.0054 -2.06909 0
68.9095 -4.91724 0
70.9266 -2.5651 0
68.775 -4.7208 0
69.8111 -0.160116 0
68.1661 -4.53935 0
69.6392 1.74993 0
69.9749 0.26306 0
69.3846 4.69203 0
69.522 0.0558147 0
69.1067 5.52634 0
69.0626 5.17077 0
69.2603 0.110191 0
68.6135 4.48625 0
69.0506 0.0862865 0
69.1225 -4.1993 0
69.8265 -0.318943 0
69.9107 3.98403 0
68.3407 0.374749 0
68.4271 4.20629 0
68.1214 -4.54346 0
69.9143 -0.143718 0
66.991 -3.84025 0
68.1574 -0.115286 0
67.5354 -3.79884 0
69.201 1.53648 0
67.8283 -0.0243103 0
69.6608 -3.32004 0
67.8273 0.0253953 0
67.1256 -3.5916 0
68.0219 3.7805 0
68.2262 -2.71571 0
67.9382 -0.01018 0
67.3965 -3.04064 0
68.813 1.92141 0
67.3864 1.24842 0
67.7236 3.23709 0
68.4119 -0.703782 0
67.2828 -3.38587 0
68.0412 0.0842009 0
67.5045 4.44081 0
68.6652 -1.49886 0
67.8198 0.0100649 0
67.0962 -3.07857 0
67.4521 3.99746 0
68.2677 0.362975 0
67.4775 3.08726 0
67.2947 3.0414 0
68.0845 0.078858 0
66.7976 2.72519 0
66.4828 -2.73164 0
68.0138 -0.0671763 0
66.2217 -2.76013 0
67.9907 -1.24983 0
67.9413 -0.0301138 0
65.9303 -1.88928 0
66.7034 3.44943 0
68.3332 0.330227 0
67.7515 2.10198 0
66.3298 -1.65527 0
68.1662 -0.131243 0
65.8191 -1.5637 0
65.8952 2.50958 0
68.2056 0.101659 0
66.1962 2.37845 0
66.4716 1.90163 0
67.8423 0.00752033 0
65.8637 2.06833 0
66.7902 -0.962595 0
68.3355 -0.334512 0
66.2173 -0.881846 0
65.3158 -0.559157 0
68.2722 -0.650789 0
65.4944 -0.467731 0
68.0666 0.64296 0
68.0593 -0.0161875 0
67.4956 1.54432 0
65.8034 1.63314 0
68.2528 0.0065433 0
65.3775 1.07741 0
68.3352 -0.187255 0
67.8958 0.00414272 0
65.3702 -0.12876 0
65.7466 -0.0160781 0
68.0445 -0.0328973 0
67.435 0.186705 0
66.0189 0.372418 0
67.9709 -0.0177353 0
68.2553 -3.69652 0
68.1447 -0.132742 0
67.8795 -0.0421724 0
68.6915 4.6246 0
69.2523 -5.1351 0
71.4129 -0.590053 0
70.3193 0.599666 0
70.8996 5.84921 0
68.0423 0.047224 0
66.3548 3.3007 0
66.0465 -1.87771 0
67.899 0.00164242 0
68.1719 -0.208483 0
68.5657 -2.25829 0
68.3202 0.439611 0
67.9409 0.0256672 0
68.0823 -0.0232939 0
65.7691 1.43177 0
69.496 0.274501 0
68.9211 1.00853 0
69.1411 -0.844667 0
70.2094 -0.413052 0
73.6933 -0.821547 0
73.3093 -5.62714 0
74.4586 5.66946 0
73.5761 0.301269 0
68.589 1.11006 0
69.5739 5.36522 0
69.0385 -4.6515 0
69.5832 -1.36024 0
68.1598 -0.978799 0
66.6208 -0.121566 0
67.5394 3.92451 0
68.7618 1.23903 0
68.6999 -1.19621 0
66.5497 -3.11 0
77.2347 -3.80998 0
75.2313 -0.474185 0
75.138 0.566493 0
77.8445 3.55434 0
68.3274 -0.486645 0
67.8884 0.00579336 0
67.9268 -0.0307147 0
69.2307 0.468115 0
72.1078 0.45403 0
71.7884 2.71095 0
70.861 -1.21602 0
72.8062 -1.10103 0
71.0655 3.22696 0
72.7403 5.71628 0
72.0843 -5.75823 0
71.7143 -1.18815 0
74.2795 1.10694 0
74.9394 3.61219 0
73.9753 -1.84964 0
74.6232 -0.0258514 0
76.2358 -0.205592 0
77.9418 -1.17545 0
78.2406 -0.421499 0
75.9229 0.0203659 0
75.8436 -0.00687186 0
77.4636 0.465327 0
76.7039 -1.63556 0
75.9074 -0.0829483 0
69.3742 -0.878931 0
68.7648 -0.399293 0
68.8288 0.808177 0
69.4303 0.569067 0
68.6847 0.841859 0
67.9358 -0.0148954 0
67.829 0.036083 0
68.622 -0.792457 0
75.9242 0.6828 0
76.8548 1.34592 0
75.956 -0.862371 0
75.9592 -0.123842 0
67.5112 -0.663737 0
68.0632 -0.0719497 0
68.3089 -0.321201 0
68.1102 -0.139824 0
67.9456 -0.0124407 0
68.4189 0.586996 0
76.5034 1.51087 0
75.2471 0.268076 0
75.2567 0.00174661 0
74.7407 -1.50142 0
71.1698 -0.0193877 0
70.6968 -1.7301 0
71.338 1.16007 0
70.4647 0.273279 0
68.6814 2.56518 0
68.0192 4.9283 0
68.1468 -4.11398 0
69.0613 -1.97222 0
69.2617 -1.27018 0
68.5365 -1.4281 0
68.6958 2.99251 0
68.9067 1.3695 0
76.016 -0.138242 0
76.0719 0.0050057 0
76.1914 -0.0468497 0
77.0807 0.0744046 0
69.8829 -3.43978 0
70.5834 -3.34472 0
70.3289 3.00725 0
70.4038 5.8095 0
69.5418 -2.4566 0
70.266 -1.38426 0
70.0732 1.9458 0
69.5004 0.912148 0
75.0376 2.36735 0
74.0738 0.257241 0
74.2976 -0.00173548 0
73.6803 -0.98032 0
68.3605 0.685448 0
67.926 -0.0222937 0
75.3264 -0.168462 0
75.9139 -0.90877 0
76.2629 0.37058 0
75.4294 0.0696248 0
69.174 -0.619693 0
68.8452 -0.914525 0
69.4394 1.03534 0
68.5598 0.474115 0
67.9164 0.00786386 0
68.4599 -0.434916 0
68.1117 0.0661011 0
67.8952 -0.0419351 0
66.112 1.16983 0
68.1815 0.986138 0
74.447 -2.09085 0
76.4195 -4.47832 0
77.0892 4.43895 0
74.3656 1.57971 0
68.1189 -1.44801 0
66.5961 -1.88114 0
72.3863 0.309401 0
72.5658 1.82763 0
70.8646 0.130386 0
71.6968 1.54533 0
73.1223 -0.934555 0
72.8751 -0.145564 0
72.1422 -1.14276 0
71.8964 -0.0082059 0
74.5138 -0.331584 0
74.389 -0.825897 0
74.852 0.720857 0
74.4286 9.47349e-05 0
67.987 0.00634534 0
68.3247 0.312672 0
67.8367 0.288774 0
66.2927 0.57371 0
68.2084 -0.155626 0
67.9394 -0.0324856 0
68.315 0.171008 0
68.3601 -0.562117 0
77.7602 -2.15449 0
75.9452 -1.30536 0
76.9047 1.63403 0
78.5567 0.912127 0
68.1649 -0.0277598 0
68.3611 -0.192442 0
67.9123 -0.00337191 0
68.5257 0.171271 0
73.4757 -0.227914 0
73.4354 -0.56255 0
73.6595 0.71493 0
72.7274 0.209494 0
70.5695 0.262197 0
70.6994 0.763582 0
71.3966 -1.41612 0
71.1469 -0.3274 0
68.8745 -0.621744 0
69.6856 -1.2725 0
69.2071 0.962892 0
68.8666 0.805742 0
69.5407 1.74695 0
68.5096 1.20065 0
68.8223 -1.25229 0
69.3224 -1.66986 0
76.7078 -0.488883 0
77.4081 0.180392 0
77.1867 -1.34984 0
77.0776 0.0680222 0
68.4961 -0.826986 0
68.5796 -0.968083 0
68.4987 0.715762 0
68.3618 0.879152 0
70.5843 0.683454 0
70.3087 0.249614 0
70.5321 -0.275246 0
70.8091 -1.24463 0
73.3535 2.88375 0
74.5327 5.0129 0
73.989 -5.64802 0
73.9349 -2.18313 0
66.9797 -2.22781 0
68.5366 -2.17143 0
73.1044 -1.96591 0
73.5027 -0.711881 0
72.5663 0.310407 0
74.5194 2.19267 0
66.5931 3.13431 0
68.0078 1.72046 0
72.3498 -0.0612807 0
72.6983 -0.663342 0
72.0475 0.716345 0
71.9301 0.197651 0
75.4493 -0.264545 0
75.3699 -1.08243 0
75.8908 1.49922 0
75.2289 0.198334 0
72.1342 0.926241 0
70.9679 0.22588 0
71.7162 -0.216581 0
72.0615 -1.97467 0
76.1523 0.483074 0
76.4968 1.25625 0
75.5511 -1.68774 0
76.2206 -0.552603 0
71.4425 -2.40868 0
72.1562 -1.13314 0
71.6794 1.75791 0
73.2051 4.09427 0
70.3223 0.502373 0
70.1464 0.10709 0
70.2661 -0.281684 0
70.0891 -1.01356 0
71.3682 -0.386312 0
71.6712 -0.00537071 0
71.1304 0.175695 0
70.7234 0.659198 0
69.9392 0.295151 0
69.7881 0.756573 0
70.0182 -0.654213 0
70.5824 -0.212368 0
71.0137 1.80033 0
69.9453 1.15577 0
69.5853 -1.70068 0
69.0834 -1.7437 0
76.2832 -0.405451 0
76.1302 -0.216572 0
76.1367 0.213466 0
76.6473 0.258155 0
69.9333 2.43232 0
70.274 1.59417 0
69.5301 -0.489144 0
69.3811 -0.191202 0
69.209 0.165963 0
69.7828 0.510299 0
67.9262 -0.599269 0
68.4632 -0.9501 0
77.5214 -2.76981 0
76.0489 -1.50675 0
75.9271 2.78907 0
78.1233 2.95915 0
68.3527 -0.528476 0
67.8856 -0.00549668 0
67.9164 -0.0177731 0
68.3877 0.49984 0
68.443 0.048405 0
68.5412 0.430643 0
68.6858 -0.227615 0
68.8463 -0.000909407 0
67.2068 -0.181879 0
65.355 0.131175 0
73.3601 2.20115 0
75.9293 2.21322 0
74.9363 -1.72732 0
75.2554 -3.42911 0
68.5264 1.32872 0
68.2714 0.755537 0
67.8242 -0.0130166 0
68.281 -0.0659829 0
70.2752 4.57491 0
68.9792 2.57471 0
70.1283 -2.69084 0
69.2795 -5.34377 0
68.2982 0.534216 0
68.1762 0.155057 0
74.8803 0.971335 0
75.446 2.17968 0
74.048 -1.12126 0
74.4662 -0.280384 0
70.5422 -0.323043 0
70.9446 -0.183071 0
70.5711 0.112825 0
70.4662 0.54274 0
78.1893 -0.423739 0
77.4554 0.852865 0
77.0666 -0.517694 0
77.8289 -0.764402 0
68.3305 0.0369814 0
68.1335 -1.13274 0
68.6942 0.971548 0
68.9241 1.20422 0
69.1233 -1.33126 0
68.5824 -0.711013 0