# vtk DataFile Version 3.0
Unstructured Grid for Triangles
ASCII
DATASET UNSTRUCTURED_GRID
POINTS 29612 DOUBLE
-0.000272397 1.23686e-05 0
-0.000295789 9.5838e-06 0
-0.000277865 -3.1235e-06 0
0.002024 0.0005 0
0.00203975 0.00049875 0
0.00205 0.0005 0
0.00203975 -0.00049875 0
0.002024 -0.0005 0
0.00205 -0.0005 0
0.0020295 0.0004975 0
0.0020295 -0.0004975 0
0.00201925 0.00049625 0
0.00201925 -0.00049625 0
-0.000529747 -0.000479887 0
-0.00055 -0.0005 0
-0.000524 -0.0005 0
-0.000505983 -0.000484325 0
-0.000498 -0.0005 0
-0.000472 -0.0005 0
-0.000483864 -0.000487761 0
-0.000446 -0.0005 0
-0.000459 -0.000484239 0
-0.000429453 -0.000424878 0
-0.000447486 -0.000420717 0
-0.000441829 -0.000436609 0
-0.000512578 -0.000462101 0
-0.000493078 -0.000453594 0
-0.00050706 -0.000439006 0
-0.000419243 -0.000477545 0
-0.000440307 -0.000471837 0
-0.00043691 -0.000486724 0
-0.000516129 -0.000420948 0
-0.000495355 -0.000415432 0
-0.000511646 -0.00040128 0
-0.000394697 -0.000481197 0
-0.000406302 -0.000455143 0
-0.000537257 -0.000388197 0
-0.000531099 -0.000407297 0
-0.000523982 -0.000388328 0
-0.000370063 -0.000472956 0
-0.000368 -0.0005 0
-0.00035308 -0.000485302 0
-0.0005072 -0.00037867 0
-0.000485506 -0.000383975 0
-0.000490949 -0.000359622 0
-0.000337127 -0.000484331 0
-0.000316 -0.0005 0
-0.000326495 -0.00047415 0
-0.00055 -0.00035 0
-0.000531201 -0.000370361 0
-0.000528367 -0.000346817 0
-0.000363898 -0.000448809 0
-0.000383315 -0.000460336 0
-3.26269e-05 -0.000415503 0
-5.99662e-05 -0.000409556 0
-5.46944e-05 -0.000429488 0
-0.000529747 0.000479887 0
-0.00055 0.0005 0
-0.00055 0.000475 0
-0.00055 0.00045 0
-0.000534834 0.000429171 0
-0.000526943 0.000442611 0
-0.000534026 0.000460176 0
-0.000531099 0.000407297 0
-0.000511672 0.000401178 0
-0.000516129 0.000420948 0
-0.000524 0.0005 0
-0.000505983 0.000484325 0
-0.000531201 0.000370361 0
-0.0005072 0.00037867 0
-0.000523982 0.000388328 0
-0.00048341 0.000469132 0
-0.000483679 0.000487539 0
-0.000528367 0.000346817 0
-0.00055 0.000325 0
-0.000525657 0.000328474 0
-0.000498 0.0005 0
-0.000530382 0.0003125 0
-0.000419243 0.000477545 0
-0.000440015 0.00047335 0
-0.000425917 0.000463678 0
-0.000435138 0.000262661 0
-0.000414982 0.000274462 0
-0.000435654 0.000285217 0
-0.000459 0.000484239 0
-0.000436852 0.000487027 0
-0.000446 0.0005 0
-0.000533308 0.000292503 0
-0.00055 0.000275 0
-0.000523377 0.000276953 0
-0.000425282 0.000446352 0
-0.000409368 0.000435728 0
-0.000406302 0.000455143 0
0.002009 0.000495 0
0.001998 0.0005 0
0.00199875 0.00049375 0
0.0019885 0.0004925 0
0.001972 0.0005 0
0.00197825 0.00049125 0
0.001968 0.00049 0
0.00195775 0.00048875 0
0.001946 0.0005 0
0.0019475 0.0004875 0
0.00193725 0.00048625 0
0.00192 0.0005 0
0.001927 0.000485 0
0.00191675 0.00048375 0
0.0019065 0.0004825 0
0.001894 0.0005 0
0.00189625 0.00048125 0
0.001886 0.00048 0
0.001868 0.0005 0
0.00187575 0.00047875 0
0.0018655 0.0004775 0
0.00185515 0.00048575 0
0.001842 0.0005 0
0.001845 0.000475 0
0.00185525 0.00047625 0
0.00182564 0.0004829 0
0.001816 0.0005 0
0.0018245 0.0004725 0
0.00183475 0.00047375 0
0.00181425 0.00047125 0
0.00180295 0.000482657 0
0.00179 0.0005 0
0.00179375 0.00046875 0
0.001804 0.00047 0
0.00178168 0.000480619 0
0.001764 0.0005 0
0.00177325 0.00046625 0
0.0017835 0.0004675 0
0.00176428 0.000476631 0
0.001763 0.000465 0
0.001738 0.0005 0
0.001751 0.000484164 0
0.00175275 0.00046375 0
0.00174025 0.000475632 0
0.001712 0.0005 0
0.00172615 0.000478449 0
0.001722 0.00046 0
0.00173225 0.00046125 0
0.0017015 0.0004575 0
0.00171243 0.00047381 0
0.00169554 0.000479999 0
0.001686 0.0005 0
0.00167507 0.000479751 0
0.00168498 0.000464861 0
0.00166 0.0005 0
0.0016558 0.000471459 0
0.00167135 0.000462887 0
0.001681 0.000455 0
0.0016605 0.0004525 0
0.00167075 0.00045375 0
0.00164059 0.000461599 0
0.0016394 0.000479551 0
0.00162881 0.00046615 0
0.00162975 0.00044875 0
0.00165025 0.00045125 0
0.00164 0.00045 0
0.00161754 0.000458641 0
0.00161722 0.000478101 0
0.00159956 0.000458294 0
0.00160925 0.00044625 0
0.0016195 0.0004475 0
0.00157667 0.000460322 0
0.00158875 0.00044375 0
0.00159194 0.000480155 0
0.001599 0.000445 0
0.0015785 0.0004425 0
0.00155808 0.000456757 0
0.00155647 0.000476701 0
0.00154059 0.000466642 0
0.00153756 0.000450083 0
0.00154839 0.000450446 0
0.00156825 0.00044125 0
0.00151954 0.000480508 0
0.00154052 0.00048477 0
0.00153 0.0005 0
0.00154775 0.00043875 0
0.00152142 0.000456625 0
0.00152821 0.000445753 0
0.0015375 0.0004375 0
0.001504 0.0005 0
0.00149644 0.000485168 0
0.00151787 0.000443178 0
0.00152725 0.00043625 0
0.00150675 0.00043375 0
0.001517 0.000435 0
0.00148119 0.000450887 0
0.00148072 0.000475756 0
0.00146584 0.000463516 0
0.00150008 0.00046396 0
0.00149351 0.00044543 0
0.0015061 0.000446252 0
0.001476 0.00043 0
0.00148625 0.00043125 0
0.00146492 0.000482975 0
0.00144888 0.000473562 0
0.00146676 0.000444259 0
0.00145255 0.000453656 0
0.00145652 0.000438669 0
0.00141401 0.000479821 0
0.001426 0.0005 0
0.0014 0.0005 0
0.00144374 0.000438862 0
0.0014555 0.0004275 0
0.001435 0.000425 0
0.00144525 0.00042625 0
0.00142746 0.000438121 0
0.00141288 0.000443191 0
0.00141707 0.000432778 0
0.0013921 0.000438992 0
0.00140355 0.00045932 0
0.00138302 0.00045922 0
0.00142912 0.000458869 0
0.00140592 0.000430037 0
0.0014145 0.0004225 0
0.00136458 0.00045869 0
0.00137106 0.00044063 0
0.001394 0.00042 0
0.00138259 0.000428915 0
0.00137484 0.000477094 0
0.00139166 0.000478902 0
0.0013586 0.000478984 0
0.00133449 0.000478649 0
0.00134717 0.000461848 0
0.00137256 0.000425134 0
0.00135323 0.000424541 0
0.00136325 0.00041625 0
0.00136122 0.00042876 0
0.00131206 0.000447284 0
0.00133168 0.000456738 0
0.00131773 0.000465243 0
0.00134756 0.000440343 0
0.00132747 0.000436463 0
0.00133483 0.000426786 0
0.00131081 0.00041867 0
0.00132382 0.000422815 0
0.00131507 0.00043122 0
0.00131059 0.000480123 0
0.0013325 0.0004125 0
0.0012915 0.0004075 0
0.0012982 0.000418199 0
0.00128915 0.000426216 0
0.00126366 0.000447574 0
0.00127331 0.000430908 0
0.00128781 0.000444872 0
0.00125336 0.000428376 0
0.00130218 0.000431077 0
0.00127894 0.000416344 0
0.00124774 0.000469608 0
0.00127668 0.000464148 0
0.00126591 0.00048331 0
0.00126722 0.000418415 0
0.00125768 0.000411931 0
0.00124326 0.000413546 0
0.0012505 0.0004025 0
0.00122408 0.000450118 0
0.00120276 0.000447432 0
0.0012139 0.000432235 0
0.00124336 0.000444132 0
0.00123056 0.000427595 0
0.00122977 0.000409049 0
0.0012185 0.000469217 0
0.00122676 0.000485947 0
0.00120525 0.000486094 0
0.00121479 0.000413153 0
0.00119547 0.000424221 0
0.00120249 0.000407448 0
0.00119925 0.00039625 0
0.00119346 0.000406114 0
0.00117479 0.000447279 0
0.00114726 0.000445259 0
0.0011571 0.000427814 0
0.00119443 0.000466611 0
0.00117447 0.000421596 0
0.00118421 0.00040752 0
0.00117409 0.000404437 0
0.00116775 0.000470073 0
0.001179 0.0004855 0
0.00115473 0.000484802 0
0.0011685 0.0003925 0
0.00117875 0.00039375 0
0.00115454 0.000400551 0
0.001148 0.00039 0
0.00115825 0.00039125 0
0.00111703 0.000423398 0
0.00113786 0.000426731 0
0.00112589 0.000443871 0
0.00113234 0.000406671 0
0.00114754 0.000413371 0
0.001106 0.000442326 0
0.00109703 0.000424261 0
0.0011275 0.0003875 0
0.00113775 0.00038875 0
0.00110211 0.000480875 0
0.00108244 0.000471951 0
0.00109312 0.000458413 0
0.00111755 0.000399116 0
0.0010944 0.000392972 0
0.00110415 0.000405876 0
0.00108839 0.000407536 0
0.00106472 0.000476905 0
0.00107274 0.000457868 0
0.00108011 0.000392415 0
0.00106885 0.000404365 0
0.00106625 0.000388708 0
0.00105286 0.000419254 0
0.00105055 0.000395469 0
0.00104215 0.000439764 0
0.00106346 0.000440629 0
0.00100945 0.000451249 0
0.00102825 0.00045614 0
0.00101189 0.000468452 0
0.00107625 0.00038125 0
0.00105575 0.00037875 0
0.001066 0.00038 0
0.00103352 0.000476905 0
0.00101803 0.00048465 0
0.00103685 0.000389398 0
0.0010245 0.00038825 0
0.00103525 0.00037625 0
0.00101092 0.000399779 0
0.00101267 0.000382619 0
0.00101382 0.00042025 0
0.00103187 0.000405286 0
0.00103359 0.000424605 0
0.000987383 0.00045447 0
0.000999411 0.000435161 0
0.0009744 0.000433145 0
0.0010045 0.0003725 0
0.00101475 0.00037375 0
0.000970845 0.000465215 0
0.000952614 0.000467664 0
0.000961768 0.000449944 0
0.00099729 0.000387704 0
0.000978901 0.00039598 0
0.000985823 0.000381492 0
0.000962289 0.000393709 0
0.000974259 0.000381279 0
0.00097375 0.00036875 0
0.000963045 0.000376631 0
0.000958 0.0005 0
0.000932 0.0005 0
0.000947542 0.00048457 0
0.000949675 0.000385245 0
0.000936214 0.000389472 0
0.000940006 0.000374906 0
0.000966411 0.000412573 0
0.000944241 0.000407079 0
0.000903569 0.000424993 0
0.000921701 0.000402409 0
0.000927439 0.000427744 0
0.000889795 0.000409067 0
0.000903071 0.00040248 0
0.000925447 0.000377721 0
0.00093275 0.00036375 0
0.000907708 0.000387127 0
0.000911303 0.000370839 0
0.000911933 0.000455145 0
0.000930678 0.000473279 0
0.000911886 0.000482603 0
0.000887724 0.000388076 0
0.000899595 0.000375116 0
0.000902 0.00036 0
0.000889241 0.00036954 0
0.000836977 0.000459472 0
0.000836223 0.000483578 0
0.000820467 0.000474142 0
0.000871227 0.000403557 0
0.000861 0.000355 0
0.000868368 0.000365714 0
0.00085484 0.00036588 0
0.000847735 0.000402845 0
0.000823121 0.000421599 0
0.000826582 0.000398147 0
0.000846943 0.00042454 0
0.000838832 0.000378613 0
0.000835569 0.000363808 0
0.000844098 0.00036291 0
0.00085075 0.00035375 0
0.000851465 0.000477164 0
0.00083025 0.00035125 0
0.000822824 0.000368659 0
0.00081446 0.000357362 0
0.000805884 0.000371794 0
0.000753471 0.000477524 0
0.000738313 0.000473927 0
0.000739102 0.000461526 0
0.00079826 0.000358588 0
0.000788607 0.000376287 0
0.000781733 0.000357987 0
0.000816783 0.000384471 0
0.000807975 0.000404095 0
0.000752138 0.000404775 0
0.000767682 0.000417043 0
0.000749617 0.000421803 0
0.000752903 0.000384008 0
0.000738293 0.000393136 0
0.000772614 0.000394048 0
0.00076863 0.000371878 0
0.000765995 0.000354121 0
0.000779 0.000345 0
0.00071811 0.000453059 0
0.000738069 0.000437967 0
0.000752085 0.000365972 0
0.000728123 0.000374583 0
0.000741845 0.000354664 0
[...]
CELL_DATA 58684
VECTORS velocity DOUBLE
65.5473 0.170983 0
67.0683 -0.000335636 0
67.2172 0.000112132 0
67.0849 -0.0048384 0
67.2409 0.00656777 0
67.0921 -0.00289074 0
67.2568 0.00606277 0
67.7047 -0.0180847 0
67.6716 -0.0535092 0
67.6884 -0.0158603 0
67.7547 -0.0198687 0
67.7935 -0.60359 0
67.6569 -0.274203 0
67.8549 -0.178544 0
67.6553 -0.46024 0
68.0047 -0.212408 0
67.7264 -0.257842 0
68.2021 -0.148611 0
67.7302 -0.744186 0
68.5725 -0.0972676 0
67.7961 -0.244792 0
68.209 -0.363736 0
72.8778 -1.45434 0
67.7548 0.0240708 0
67.6994 0.133457 0
67.7588 0.0605277 0
67.7029 0.337998 0
67.6761 0.0505592 0
67.7437 0.449819 0
67.7086 0.112757 0
67.8124 0.329223 0
67.6638 0.070162 0
67.6675 0.324452 0
67.9339 0.212614 0
67.891 1.33468 0
67.8024 0.102014 0
67.8827 0.386895 0
67.9786 0.41954 0
67.1085 0.00663292 0
67.1233 0.00194308 0
67.1485 -0.00935391 0
67.1549 0.0014034 0
67.1886 0.00382381 0
67.2222 -0.00777249 0
67.2358 -0.00778245 0
67.2521 0.00671279 0
67.2874 0.00824614 0
67.3227 -0.010039 0
67.3346 0.00100764 0
67.3805 0.0100136 0
67.4269 -0.0107509 0
67.4463 -0.00816471 0
67.4658 0.00915878 0
67.512 0.0147251 0
67.5575 -0.0115211 0
67.572 0.00119623 0
67.6253 0.0152189 0
67.6844 -0.0170394 0
67.7056 -0.0129099 0
67.7335 0.00416201 0
67.7894 0.014454 0
67.8092 -0.0193364 0
67.8822 -0.00384813 0
67.9537 0.0130624 0
67.9622 -0.0174968 0
67.9823 -0.00812057 0
68.0292 0.00256103 0
68.0906 0.0141765 0
68.1041 -0.0162997 0
68.1509 0.00145481 0
68.2207 0.0143358 0
68.2335 -0.0253176 0
68.273 -0.00716719 0
68.3299 -0.0438128 0
68.3887 0.0142827 0
68.4191 -0.0276611 0
68.453 -0.0209622 0
68.5348 0.0147272 0
68.5521 -0.0427878 0
68.6818 -0.020047 0
68.5797 -0.030846 0
68.6992 0.0107556 0
68.7575 -0.0353523 0
68.7174 -0.0440736 0
68.8853 -0.0365297 0
68.8409 -0.0379983 0
68.8224 -0.0474011 0
68.8866 -0.071416 0
69.0141 -0.0414733 0
69.066 -0.0529016 0
68.9616 -0.0471471 0
69.0321 -0.0767752 0
69.1202 -0.0627056 0
69.1077 -0.061895 0
69.1348 -0.0798328 0
69.2484 -0.0616793 0
69.2005 -0.0707756 0
69.2234 -0.0842275 0
69.2889 -0.0927747 0
69.3169 -0.0702645 0
69.3974 -0.0771665 0
69.3188 -0.0676494 0
69.4117 -0.0289626 0
69.4029 -0.0766038 0
69.4607 -0.0712934 0
69.4415 -0.0839509 0
69.4728 -0.0223941 0
69.4737 -0.0808666 0
69.5175 -0.0938238 0
69.5555 -0.0402034 0
69.5459 -0.0471178 0
69.517 -0.0733936 0
69.5926 -0.0846119 0
69.5782 -0.0303563 0
69.6453 -0.0701271 0
69.6147 -0.0426682 0
69.6555 0.00294064 0
69.6597 -0.0684304 0
69.6897 -0.0824187 0
69.7329 -0.0677959 0
69.7475 -0.0458607 0
69.6793 -0.043457 0
69.7447 -0.0688737 0
69.7787 -0.0462897 0
69.7838 -0.0719933 0
69.7388 -0.0261672 0
69.7929 -0.0646349 0
69.7983 -0.0239012 0
69.8096 -0.0732532 0
69.8392 -0.0869949 0
69.8752 -0.0619275 0
69.8646 -0.0784839 0
69.8319 -0.0379792 0
69.9064 -0.105957 0
69.8439 -0.0322202 0
69.8824 -0.0996952 0
69.9503 -0.128614 0
69.9861 -0.105076 0
70.0142 -0.143147 0
69.9515 -0.113396 0
69.968 -0.131401 0
69.9513 -0.0704629 0
70.0244 -0.169436 0
70.0523 -0.195303 0
70.1534 -0.167916 0
70.0358 -0.115331 0
70.048 -0.179471 0
70.0915 -0.219803 0
70.0783 -0.0453631 0
70.1991 -0.274454 0
70.2139 -0.319622 0
70.3775 -0.23618 0
70.2306 -0.190998 0
70.2454 -0.299424 0
70.2924 -0.352394 0
70.2608 -0.063566 0
70.3181 -0.412366 0
70.436 -0.474402 0
70.5691 -0.377398 0
70.4779 -0.414169 0
70.6907 -0.425682 0
70.5303 -0.534009 0
70.6935 -0.156931 0
70.5488 -0.514829 0
70.7415 -0.55699 0
70.8468 -0.18389 0
70.9349 -0.68545 0
71.0383 -0.628079 0
71.0577 -0.396061 0
71.3136 -0.312474 0
70.9303 -0.695005 0
71.0453 -0.779161 0
71.2504 -0.154569 0
71.2572 -0.774594 0
71.4317 -0.807004 0
71.2108 -0.585139 0
71.5297 -0.339812 0
71.6315 -0.467177 0
71.5195 -0.916518 0
71.7835 -0.273712 0
71.7272 -0.828972 0
71.8117 -0.786904 0
71.883 -0.926049 0
71.8805 0.000818823 0
72.1973 -0.853513 0
71.8487 -0.679366 0
72.2454 -0.523075 0
72.4388 -0.577462 0
72.3162 -0.910103 0
72.4864 -0.883048 0
72.2026 -0.18162 0
72.5738 -0.785624 0
72.6482 -0.905885 0
72.6813 -0.871742 0
72.939 -0.138747 0
72.6643 -0.640108 0
73.0921 -0.839625 0
73.1627 -0.573846 0
72.9987 -0.48164 0
73.1777 -0.805307 0
73.1938 -0.841028 0
72.9101 -0.132067 0
73.3883 -0.802581 0
73.4613 -0.729438 0
73.7353 -0.101491 0
73.606 -0.698964 0
73.3407 -0.556349 0
73.765 -0.40204 0
73.8753 -0.490499 0
73.6941 -0.612246 0
73.7676 -0.679749 0
73.8173 -0.252272 0
73.9734 -0.588796 0
73.9456 -0.685439 0
74.1683 -0.641899 0
74.1631 0.00116281 0
74.1145 -0.566266 0
74.185 -0.653662 0
74.0112 -0.199086 0
74.2436 -0.675296 0
74.4271 -0.460216 0
74.2941 -0.702173 0
74.6917 -0.301898 0
74.4286 -0.692774 0
74.4124 -0.753224 0
74.5619 -0.171977 0
74.524 -0.814351 0
74.711 -0.94514 0
74.7003 -0.791198 0
74.851 -0.555331 0
74.6988 -1.08292 0
75.0964 -0.561895 0
75.5142 -0.104304 0
74.7206 -0.915837 0
74.7993 -1.17451 0
74.9182 -1.26965 0
75.4804 -0.561089 0
75.1722 -1.31214 0
75.3014 -1.52038 0
75.7448 -0.201493 0
75.5602 -1.6784 0
75.337 -1.74041 0
75.5213 -1.33575 0
75.8951 -0.740769 0
75.987 -0.915783 0
75.5785 -1.9716 0
76.3397 -0.0163961 0
75.7492 -2.17962 0
75.9714 -2.18221 0
75.8892 -2.27589 0
76.6234 -0.651422 0
76.3626 -2.0286 0
76.6398 -2.19047 0
76.7156 -0.0191479 0
76.769 -2.61654 0
77.2623 -2.39163 0
76.8283 -1.61243 0
76.8159 -0.7774 0
77.1145 -2.63653 0
77.0231 -0.960647 0
76.9858 -0.104175 0
77.1891 -1.90936 0
77.581 -2.50639 0
77.9148 -2.39767 0
77.1719 -0.407263 0
78.0173 -1.80353 0
78.0641 -2.22872 0
77.0778 -0.147244 0
78.2675 -2.23199 0
78.5776 -1.9469 0
78.2299 -1.08343 0
76.868 -0.0116831 0
78.7918 -1.51728 0
77.8163 -0.343611 0
78.1066 -0.25484 0
78.6651 -1.26133 0
78.413 -0.81302 0
79.1979 -0.8255 0
76.9915 0.0835477 0
79.1482 -0.98468 0
78.6034 -0.174326 0
79.1762 0.0123072 0
76.9329 0.00195046 0
79.0168 0.81608 0
78.7658 1.01031 0
75.7362 0.127002 0
79.1613 0.534463 0
79.036 0.948275 0
76.8533 0.998877 0
76.6472 0.416894 0
78.1295 0.611278 0
78.8655 1.46077 0
76.0067 0.229326 0
78.296 2.22564 0
78.6831 1.79323 0
78.6722 1.97243 0
75.3039 1.01362 0
77.3476 2.26667 0
78.0984 2.51885 0
75.3433 0.163036 0
77.9212 2.93375 0
77.8959 2.73332 0
76.8754 3.84481 0
73.6276 0.256106 0
77.5933 3.69059 0
76.2593 2.60028 0
74.9044 1.11297 0
74.6307 2.12405 0
77.4011 3.97759 0
76.6451 4.28265 0
74.0684 0.428671 0
76.4528 4.84384 0
67.2777 -0.0062009 0
67.2928 -0.00198266 0
67.3249 0.0124391 0
67.3323 -0.000387389 0
67.3681 -0.00357207 0
67.408 0.0105416 0
67.4211 0.00831203 0
67.4388 -0.00564496 0
67.4759 -0.00799409 0
67.5136 0.0124881 0
67.5248 0.000383486 0
67.5706 -0.0100334 0
67.6148 0.00842012 0
67.6337 0.00456706 0
67.6529 -0.00927141 0
67.6985 -0.0149636 0
67.7395 0.00511785 0
67.7546 -0.00506607 0
67.8053 -0.0158901 0
67.8551 0.0066395 0
67.876 0.00262549 0
67.9448 0.00341428 0
67.9028 -0.0121851 0
67.9916 -0.00270853 0
68.0695 -0.0117572 0
68.0316 -0.0104261 0
68.1121 -0.0178777 0
68.1503 -0.0227051 0
68.191 -0.0104705 0
68.1401 0.00313156 0
68.2467 -0.0246295 0
68.2896 -0.0113045 0
68.2546 0.000850058 0
68.377 -0.010002 0
68.3944 -0.0157596 0
68.4232 -0.0173275 0
68.36 -0.00430573 0
68.4493 -0.0124386 0
68.517 -0.0242824 0
68.4718 -0.00588341 0
68.5905 -0.0124627 0
68.6066 -0.00557755 0
68.632 -0.0221711 0
68.5805 -0.00236496 0
68.6621 -0.0121593 0
68.7245 -0.0123397 0
68.776 0.00326537 0
68.7268 0.000286732 0
68.7887 -0.00541538 0
68.8068 0.00341841 0
68.8834 -0.00566985 0
68.8636 0.00278977 0
68.8933 0.00216759 0
68.9319 0.0204167 0
68.9712 0.00727059 0
68.9624 0.00619366 0
68.9968 0.034812 0
69.0594 0.0352896 0
68.999 0.0366971 0
69.0635 0.0533764 0
69.0715 0.0576324 0
69.1081 0.0407949 0
69.1481 0.0266999 0
69.1714 0.0763082 0
69.0297 0.0198826 0
69.2046 0.0928566 0
69.2885 0.129366 0
69.2492 0.102167 0
69.2177 0.0546816 0
69.3223 0.143353 0
69.3429 0.121008 0
69.4177 0.0745972 0
69.3069 0.119679 0
69.4074 0.148736 0
69.4533 0.175841 0
69.3468 0.0383235 0
69.4386 0.129801 0
69.5507 0.216489 0
69.4747 0.103274 0
69.5768 0.184735 0
69.6683 0.243096 0
69.614 0.181057 0
69.7059 0.0704954 0
69.7016 0.223949 0
69.7553 0.249373 0
69.7578 0.0697458 0
69.8208 0.282988 0
69.7398 0.209472 0
69.8976 0.230128 0
69.7965 0.157436 0
69.926 0.312437 0
70.0948 0.363608 0
70.0281 0.0906048 0
69.9982 0.253505 0
70.177 0.378406 0
70.1214 0.26906 0
69.9924 0.113396 0
70.2211 0.340474 0
70.2764 0.34595 0
70.2069 0.0777916 0
70.3113 0.139699 0
70.3596 0.28168 0
70.4051 0.378596 0
70.2539 0.215393 0
70.4755 0.338359 0
70.525 0.353528 0
70.5424 0.104898 0
70.4874 0.206201 0
70.6293 0.356675 0
70.624 0.298615 0
70.4099 0.110286 0
70.6662 0.316953 0
70.7619 0.306928 0
70.6967 0.113652 0
70.701 0.277135 0
70.8623 0.332955 0
70.8352 0.248916 0
70.5977 0.10208 0
70.8994 0.284478 0
70.99 0.293011 0
70.7899 0.103942 0
70.9639 0.224616 0
70.9089 0.106484 0
71.0102 0.221144 0
70.8771 0.152953 0
71.0637 0.271596 0
71.127 0.229089 0
70.9756 0.0707925 0
71.1092 0.231954 0
71.1958 0.23699 0
71.1151 0.0711571 0
71.0635 0.212969 0
71.1692 0.217293 0
71.2435 0.231697 0
71.088 0.0510896 0
71.2399 0.224801 0
71.3624 0.283941 0
71.3255 0.266413 0
71.283 0.0923764 0
71.4082 0.308649 0
71.2034 0.118639 0
71.2393 0.226172 0
71.4018 0.306292 0
71.5343 0.375845 0
71.5531 0.408955 0
71.2373 0.0016548 0
71.6729 0.512668 0
71.6863 0.520336 0
71.7735 0.542152 0
71.7902 0.268692 0
71.9948 0.301966 0
71.7641 0.570383 0
71.5364 0.140113 0
71.9441 0.70228 0
71.944 0.706579 0
72.0557 0.696293 0
72.0304 0.212608 0
72.1093 0.813354 0
72.4065 1.06836 0
72.349 0.42821 0
72.2244 0.405302 0
72.4105 0.91279 0
72.684 1.21157 0
72.0533 0.22722 0
72.8161 1.31244 0
72.9003 1.30901 0
72.842 0.244254 0
73.3262 1.59265 0
73.4054 1.53193 0
73.6868 1.3466 0
73.3336 0.55139 0
73.2135 0.607634 0
73.357 1.50389 0
73.0074 0.378959 0
73.8371 1.84223 0
73.9754 1.72396 0
74.0457 1.60862 0
73.6131 0.224002 0
74.4866 1.87526 0
74.5231 1.9356 0
74.2683 1.00371 0
74.9275 1.43728 0
74.4367 0.822171 0
74.7069 1.82232 0
74.1581 0.491714 0
75.1569 2.09016 0
75.2156 1.98803 0
74.2909 0.420892 0
75.3956 1.76188 0
75.8938 1.9405 0
75.6445 1.96271 0
75.5187 0.4209 0
76.4429 1.89829 0
76.5147 2.01963 0
75.312 1.32161 0
76.1538 1.41407 0
75.5417 0.759631 0
76.8501 1.96474 0
75.8825 0.217609 0
76.9167 1.77514 0
76.8661 1.6307 0
75.5335 0.183146 0
76.6471 1.46386 0
77.2841 1.50082 0
77.3722 1.43026 0
76.5338 0.425934 0
77.412 1.31438 0
77.4222 1.33343 0
76.5442 1.08245 0
77.3254 0.895916 0
76.7154 0.386279 0
77.4977 1.19845 0
76.7214 0.15091 0
77.5599 1.06293 0
77.5832 1.01559 0
76.5186 0.107116 0
77.4348 0.895361 0
77.6093 0.850085 0
77.6311 0.807793 0
76.9461 0.249027 0
77.5911 0.781308 0
77.6346 0.752676 0
77.4874 0.801296 0
77.5747 0.532324 0
76.9626 0.181436 0
77.5854 0.724089 0
76.9241 0.0793505 0
77.6834 0.716022 0
77.7052 0.656329 0
76.8852 0.0583852 0
77.6465 0.492428 0
77.7535 0.554761 0
77.8439 0.49681 0
76.7841 0.00830742 0
77.8965 0.416933 0
77.9407 0.334801 0
76.8321 -0.00353414 0
77.9514 0.350642 0
77.5674 -0.0803889 0
77.1425 0.125318 0
77.0316 0.150422 0
78.0269 0.208845 0
77.9803 -0.138763 0
78.2233 -0.188675 0
76.6527 0.0139768 0
77.8475 -0.500644 0
78.2318 -0.715516 0
76.6175 -0.0184866 0
77.7201 -0.508014 0
78.2464 -1.14829 0
77.3312 -0.903261 0
76.5508 -0.304092 0
78.1562 -1.41501 0
78.0797 -1.70264 0
77.2908 -0.465498 0
76.8787 -1.93209 0
75.4583 -1.6706 0
77.9643 -1.76997 0
75.621 -0.216202 0
77.8612 -2.48284 0
75.8937 5.18267 0
76.3479 4.72453 0
72.7612 1.33689 0
75.8452 5.09465 0
74.3691 4.69877 0
75.2401 5.54932 0
73.2208 0.528837 0
74.6339 5.64497 0
73.9146 5.55467 0
72.2699 0.682396 0
73.8588 5.90057 0
77.8094 -2.80199 0
75.834 -0.134384 0
77.646 -3.06777 0
76.8388 -3.42138 0
76.3216 -2.9242 0
75.2184 -0.170366 0
76.9583 -3.88094 0
73.1613 5.41148 0
76.3951 -4.76604 0
75.0859 -0.892073 0
76.2133 -4.60338 0
75.4694 -5.30734 0
71.4383 1.64598 0
75.2384 -5.19619 0
76.1624 -2.76018 0
75.7414 -4.68408 0
74.368 -3.43595 0
73.6016 -0.562616 0
75.0758 -4.75864 0
74.542 -5.04414 0
72.707 5.67062 0
74.5632 -5.10681 0
74.224 -0.28968 0
73.8712 -5.33661 0
73.401 -5.81863 0
73.1501 -0.366529 0
72.6803 -5.93056 0
73.0667 -4.33539 0
71.6026 -0.452913 0
72.0363 -6.02072 0
72.0158 -3.3741 0
73.1295 -2.59798 0
72.4835 -5.19001 0
71.6763 -5.4669 0
73.3721 3.05133 0
70.7902 0.370743 0
72.9409 2.06441 0
72.0503 -0.0373771 0
71.3407 -5.86775 0
72.5293 5.35986 0
70.6341 0.269878 0
72.0525 4.57665 0
70.7583 -5.83828 0
71.7139 -1.20126 0
70.2226 -4.30337 0
71.9821 6.06431 0
69.8256 1.5002 0
71.9609 5.97426 0
70.5445 5.08627 0
69.9902 0.300885 0
71.0421 5.30978 0
70.5847 -4.43493 0
71.3875 -0.359066 0
70.1764 -5.97175 0
70.2316 -5.787 0
71.2454 5.69221 0
69.9795 5.49381 0
69.4765 0.0256767 0
70.6692 5.65511 0
69.3237 3.60256 0
69.5552 1.71815 0
69.5284 -5.93369 0
69.8565 -0.830032 0
69.7812 -5.83137 0
69.0712 5.7316 0
69.1134 -5.50803 0
69.1857 -0.840945 0
69.1659 -2.60569 0
68.3617 -5.31659 0
70.1984 -2.94357 0
68.2195 -5.13248 0
68.8006 -0.244085 0
67.5964 -4.96567 0
68.7519 2.17557 0
68.9704 0.346822 0
68.818 4.88973 0
68.5557 0.0925476 0
68.6097 5.65776 0
68.518 5.34591 0
68.3237 0.166716 0
68.0217 4.71744 0
68.1956 0.129616 0
68.4925 -4.65201 0
68.8147 -0.464091 0
69.2282 4.22671 0
67.8625 1.26292 0
67.8232 4.45416 0
67.5392 -4.968 0
68.9178 -0.200092 0
66.4072 -4.2554 0
67.8781 -0.956407 0
66.9252 -4.26309 0
68.3402 2.0173 0
67.7947 0.227448 0
68.9559 -3.84392 0
67.7741 -0.247789 0
66.5124 -4.02917 0
67.3983 4.04814 0
67.5205 -3.25166 0
67.7805 -0.556645 0
66.7365 -3.51676 0
68.0352 2.39106 0
66.6734 1.44808 0
67.073 3.53745 0
67.8224 -1.25746 0
66.6572 -3.8249 0
67.7597 0.81816 0
66.9555 4.64158 0
67.866 -2.03447 0
67.7911 -0.157286 0
66.4465 -3.51946 0
66.8643 4.2231 0
67.8626 1.1801 0
66.8238 3.36594 0
66.6524 3.29273 0
67.8451 0.743961 0
66.1461 2.94184 0
65.8413 -3.11483 0
67.8024 -0.629021 0
65.5963 -3.12892 0
67.2557 -1.64732 0
67.8465 -0.40022 0
65.2925 -2.19155 0
66.0984 3.64469 0
67.8474 0.998412 0
67.0394 2.40339 0
65.6804 -1.96897 0
67.8511 -0.604093 0
65.177 -1.84158 0
65.2946 2.65682 0
67.8875 0.481476 0
65.5734 2.53755 0
65.8033 2.07013 0
67.8232 0.0647191 0
65.2452 2.18178 0
66.0911 -1.2366 0
67.8595 -0.896403 0
65.5412 -1.10711 0
64.6862 -0.725269 0
67.5465 -0.894248 0
64.8688 -0.62615 0
67.3509 0.748167 0
67.8681 0.122247 0
66.7825 1.76947 0
65.1876 1.70703 0
67.851 0.0733444 0
64.7516 1.08358 0
67.6966 -0.327021 0
67.8018 -0.200924 0
64.7451 -0.254289 0
65.0934 -0.126837 0
67.8999 -0.134565 0
66.7361 0.148915 0
65.3722 0.315635 0
67.8581 -0.118753 0
67.6014 -4.19308 0
67.7947 -0.985811 0
67.7517 0.240164 0
68.1204 4.84456 0
68.7376 -5.50159 0
70.5611 -0.695039 0
69.3588 0.751873 0
70.4327 5.93145 0
67.8118 0.530087 0
65.7509 3.4829 0
65.3944 -2.20263 0
67.6777 -0.420946 0
67.7672 -1.16506 0
67.8138 -2.85483 0
67.8288 1.27424 0
67.9528 0.414234 0
67.915 -0.0146933 0
65.1382 1.47483 0
68.5124 0.381278 0
68.1109 1.39887 0
68.2666 -1.24579 0
69.2246 -0.551134 0
73.1665 -0.827389 0
73.0408 -5.79245 0
74.1299 5.59419 0
72.9381 0.306414 0
67.8505 1.47426 0
69.0601 5.5122 0
68.4573 -5.07652 0
68.6905 -1.90908 0
67.4022 -1.32015 0
65.9475 -0.252221 0
66.9353 4.14787 0
68.0005 1.61319 0
67.9434 -1.66998 0
65.9187 -3.51392 0
77.4546 -3.51054 0
74.9843 -0.428826 0
74.8546 0.534565 0
77.7092 3.47271 0
67.8186 -1.3396 0
67.7341 -0.100301 0
67.6673 0.366856 0
68.3163 0.658503 0
71.2732 0.488637 0
71.0841 2.84905 0
69.9887 -1.46511 0
72.1508 -1.18342 0
70.3754 3.43093 0
72.3228 5.71898 0
71.739 -5.98088 0
70.9284 -1.34123 0
73.7723 1.14128 0
74.5467 3.59348 0
73.5265 -1.8747 0
74.2459 -0.0146097 0
76.5482 -0.0762435 0
78.244 -0.354232 0
79.1429 0.0511397 0
76.2161 0.00677195 0
76.8798 0.0156682 0
77.7083 0.661076 0
78.4886 -1.76892 0
77.1875 -0.182325 0
68.4712 -1.2766 0
67.9823 -0.616373 0
68.0451 1.19657 0
68.475 0.78647 0
67.9842 1.29707 0
67.7794 0.532782 0
67.7628 -0.248848 0
67.9397 -1.39307 0
75.9646 0.652414 0
77.0061 1.33286 0
75.936 -0.642562 0
76.0586 -0.071589 0
66.7833 -0.882929 0
67.9401 -0.323941 0
67.6944 -0.620402 0
67.8781 -0.782073 0
67.8321 0.387384 0
67.8516 1.33798 0
77.5784 0.927559 0
76.8683 0.227922 0
76.8485 -0.0233988 0
76.6996 -2.43578 0
70.2974 -0.0224013 0
69.8599 -2.11128 0
70.4673 1.27945 0
69.4953 0.336448 0
67.9347 2.98452 0
67.4859 5.11267 0
67.5322 -4.5698 0
68.2553 -2.59386 0
68.3728 -1.79668 0
67.7441 -1.93046 0
67.9786 3.38007 0
68.0906 1.79703 0
77.2129 -0.231023 0
76.9709 -0.0151668 0
76.8401 0.0256398 0
77.5666 0.354565 0
69.2342 -3.90074 0
69.9244 -3.73042 0
69.5653 3.28222 0
69.9181 5.90875 0
68.7519 -3.05024 0
69.3877 -1.79482 0
69.2028 2.28739 0
68.5688 1.24225 0
77.2208 1.68629 0
76.2614 0.223511 0
76.1087 -0.0225332 0
75.1682 -1.58487 0
67.6492 0.879056 0
67.8463 0.036854 0
76.9013 -0.260659 0
77.6482 -1.21794 0
77.2529 0.3801 0
76.8428 0.0620443 0
68.2739 -0.897366 0
68.0632 -1.37546 0
68.5311 1.41073 0
67.938 0.969684 0
67.8151 -0.343782 0
67.8605 -1.11628 0
67.7375 0.717415 0
67.7549 0.275127 0
65.4437 1.22176 0
67.4568 1.17923 0
74.0874 -2.10998 0
76.499 -4.34731 0
76.8887 4.26841 0
73.8976 1.5879 0
67.3841 -1.90151 0
65.9045 -2.25881 0
74.9557 0.327175 0
75.3833 1.9347 0
73.0782 0.166536 0
74.3782 1.9797 0
74.6353 -0.870724 0
74.7668 -0.161098 0
74.0347 -0.619151 0
73.9303 6.79892e-05 0
76.2905 -0.51131 0
76.1612 -1.32406 0
76.76 0.552653 0
76.442 0.00965791 0
67.9045 0.330367 0
67.8218 0.771213 0
67.1123 0.291482 0
65.6432 0.546775 0
67.9159 -0.481497 0
67.8205 -0.327784 0
67.6646 0.22987 0
67.6618 -0.802332 0
78.1106 -1.4397 0
75.8939 -1.05502 0
76.9483 1.57896 0
78.8836 1.27658 0
67.6832 -0.12742 0
67.8081 -0.657468 0
67.705 0.117099 0
67.8998 0.343911 0
75.327 -0.314913 0
75.1328 -0.740969 0
76.0474 0.620008 0
75.2631 0.217703 0
72.5073 0.311416 0
72.6563 1.10204 0
73.4983 -0.819746 0
73.2313 -0.192915 0
68.086 -0.998242 0
68.7728 -1.775 0
68.3071 1.33912 0
68.0575 1.16322 0
68.6687 2.22362 0
67.7546 1.54375 0
68.0324 -1.74335 0
68.4601 -2.2799 0
77.0841 -0.155992 0
77.709 0.527813 0
78.8824 -1.28557 0
78.0516 0.0577526 0
67.8112 -1.31129 0
67.8518 -1.49572 0
67.8449 1.30521 0
67.6282 1.1243 0
72.2234 0.937798 0
71.8486 0.252117 0
72.5459 -0.181415 0
72.9284 -0.849846 0
72.766 2.96079 0
74.1916 4.96332 0
73.7978 -5.75631 0
73.4937 -2.24335 0
66.288 -2.65479 0
67.7747 -2.7783 0
72.5341 -2.08735 0
72.9324 -0.751383 0
71.7987 0.341193 0
74.0616 2.20935 0
65.971 3.33389 0
67.2739 2.04562 0
74.3236 -0.0518162 0
74.4547 -0.553578 0
74.6278 0.790486 0
74.467 0.221933 0
75.2888 -0.231161 0
75.1633 -0.958194 0
75.7439 1.47097 0
75.0153 0.210056 0
71.3374 1.00614 0
70.0343 0.263391 0
70.8951 -0.247668 0
71.3738 -2.1472 0
77.241 0.439961 0
77.532 0.827543 0
77.6076 -2.4016 0
77.7068 -0.712728 0
70.7438 -2.69087 0
71.4318 -1.25451 0
70.8665 1.89571 0
72.712 4.16507 0
71.5187 0.3796 0
71.4291 0.0702733 0
72.2337 -0.199693 0
71.932 -0.887468 0
73.4442 -0.227712 0
73.732 0.00346347 0
73.4841 0.217569 0
72.7421 0.909635 0
68.9464 0.39252 0
68.8213 1.02673 0
69.0636 -0.935678 0
69.6407 -0.267574 0
70.1657 2.02415 0
69.0243 1.51311 0
68.7211 -2.27947 0
68.268 -2.3515 0
76.5541 -0.208614 0
76.3655 -0.124672 0
76.5758 0.192947 0
77.4102 0.214304 0
69.1201 2.79191 0
69.3678 1.92118 0
68.5313 -0.71086 0
68.3946 -0.265723 0
68.2962 0.236315 0
68.7845 0.695127 0
67.2058 -0.8088 0
67.7382 -1.37787 0
77.7986 -2.25357 0
75.9929 -1.24374 0
75.6687 2.72862 0
78.0396 2.95596 0
67.8449 -1.39809 0
67.8576 -0.271666 0
67.7071 0.403423 0
67.8517 1.32483 0
67.8583 0.140898 0
67.8815 0.769669 0
67.9701 -0.428187 0
68.0541 -0.0278087 0
66.5312 -0.305423 0
64.731 0.0369555 0
72.7366 2.27814 0
75.7172 2.18085 0
74.6481 -1.66022 0
75.0998 -3.36584 0
67.7792 1.66469 0
67.5347 0.941351 0
67.8116 -0.0471398 0
67.8321 -0.115614 0
69.6793 4.76169 0
68.2205 3.00613 0
69.3853 -3.17473 0
68.7772 -5.69667 0
67.6396 0.78517 0
67.8658 0.731745 0
76.819 0.724336 0
77.3693 1.41272 0
75.7087 -1.91655 0
76.2649 -0.445125 0
72.5825 -0.214312 0
73.0422 -0.105956 0
72.537 0.134792 0
72.0166 0.620264 0
79.235 -0.135697 0
77.8493 0.856234 0
77.3941 -0.0649024 0
78.0928 0.0328446 0
67.744 0.0718402 0
67.3921 -1.51356 0
67.9757 1.42316 0
68.1173 1.60264 0
68.2626 -1.86989 0