# vtk DataFile Version 3.0
Unstructured Grid for Triangles
ASCII
DATASET UNSTRUCTURED_GRID
POINTS 29612 DOUBLE
-0.000272397 1.23686e-05 0
-0.000295789 9.5838e-06 0
-0.000277865 -3.1235e-06 0
0.002024 0.0005 0
0.00203975 0.00049875 0
0.00205 0.0005 0
0.00203975 -0.00049875 0
0.002024 -0.0005 0
0.00205 -0.0005 0
0.0020295 0.0004975 0
0.0020295 -0.0004975 0
0.00201925 0.00049625 0
0.00201925 -0.00049625 0
-0.000529747 -0.000479887 0
-0.00055 -0.0005 0
-0.000524 -0.0005 0
-0.000505983 -0.000484325 0
-0.000498 -0.0005 0
-0.000472 -0.0005 0
-0.000483864 -0.000487761 0
-0.000446 -0.0005 0
-0.000459 -0.000484239 0
-0.000429453 -0.000424878 0
-0.000447486 -0.000420717 0
-0.000441829 -0.000436609 0
-0.000512578 -0.000462101 0
-0.000493078 -0.000453594 0
-0.00050706 -0.000439006 0
-0.000419243 -0.000477545 0
-0.000440307 -0.000471837 0
-0.00043691 -0.000486724 0
-0.000516129 -0.000420948 0
-0.000495355 -0.000415432 0
-0.000511646 -0.00040128 0
-0.000394697 -0.000481197 0
-0.000406302 -0.000455143 0
-0.000537257 -0.000388197 0
-0.000531099 -0.000407297 0
-0.000523982 -0.000388328 0
-0.000370063 -0.000472956 0
-0.000368 -0.0005 0
-0.00035308 -0.000485302 0
-0.0005072 -0.00037867 0
-0.000485506 -0.000383975 0
-0.000490949 -0.000359622 0
-0.000337127 -0.000484331 0
-0.000316 -0.0005 0
-0.000326495 -0.00047415 0
-0.00055 -0.00035 0
-0.000531201 -0.000370361 0
-0.000528367 -0.000346817 0
-0.000363898 -0.000448809 0
-0.000383315 -0.000460336 0
-3.26269e-05 -0.000415503 0
-5.99662e-05 -0.000409556 0
-5.46944e-05 -0.000429488 0
-0.000529747 0.000479887 0
-0.00055 0.0005 0
-0.00055 0.000475 0
-0.00055 0.00045 0
-0.000534834 0.000429171 0
-0.000526943 0.000442611 0
-0.000534026 0.000460176 0
-0.000531099 0.000407297 0
-0.000511672 0.000401178 0
-0.000516129 0.000420948 0
-0.000524 0.0005 0
-0.000505983 0.000484325 0
-0.000531201 0.000370361 0
-0.0005072 0.00037867 0
-0.000523982 0.000388328 0
-0.00048341 0.000469132 0
-0.000483679 0.000487539 0
-0.000528367 0.000346817 0
-0.00055 0.000325 0
-0.000525657 0.000328474 0
-0.000498 0.0005 0
-0.000530382 0.0003125 0
-0.000419243 0.000477545 0
-0.000440015 0.00047335 0
-0.000425917 0.000463678 0
-0.000435138 0.000262661 0
-0.000414982 0.000274462 0
-0.000435654 0.000285217 0
-0.000459 0.000484239 0
-0.000436852 0.000487027 0
-0.000446 0.0005 0
-0.000533308 0.000292503 0
-0.00055 0.000275 0
-0.000523377 0.000276953 0
-0.000425282 0.000446352 0
-0.000409368 0.000435728 0
-0.000406302 0.000455143 0
0.002009 0.000495 0
0.001998 0.0005 0
0.00199875 0.00049375 0
0.0019885 0.0004925 0
0.001972 0.0005 0
0.00197825 0.00049125 0
0.001968 0.00049 0
0.00195775 0.00048875 0
0.001946 0.0005 0
0.0019475 0.0004875 0
0.00193725 0.00048625 0
0.00192 0.0005 0
0.001927 0.000485 0
0.00191675 0.00048375 0
0.0019065 0.0004825 0
0.001894 0.0005 0
0.00189625 0.00048125 0
0.001886 0.00048 0
0.001868 0.0005 0
0.00187575 0.00047875 0
0.0018655 0.0004775 0
0.00185515 0.00048575 0
0.001842 0.0005 0
0.001845 0.000475 0
0.00185525 0.00047625 0
0.00182564 0.0004829 0
0.001816 0.0005 0
0.0018245 0.0004725 0
0.00183475 0.00047375 0
0.00181425 0.00047125 0
0.00180295 0.000482657 0
0.00179 0.0005 0
0.00179375 0.00046875 0
0.001804 0.00047 0
0.00178168 0.000480619 0
0.001764 0.0005 0
0.00177325 0.00046625 0
0.0017835 0.0004675 0
0.00176428 0.000476631 0
0.001763 0.000465 0
0.001738 0.0005 0
0.001751 0.000484164 0
0.00175275 0.00046375 0
0.00174025 0.000475632 0
0.001712 0.0005 0
0.00172615 0.000478449 0
0.001722 0.00046 0
0.00173225 0.00046125 0
0.0017015 0.0004575 0
0.00171243 0.00047381 0
0.00169554 0.000479999 0
0.001686 0.0005 0
0.00167507 0.000479751 0
0.00168498 0.000464861 0
0.00166 0.0005 0
0.0016558 0.000471459 0
0.00167135 0.000462887 0
0.001681 0.000455 0
0.0016605 0.0004525 0
0.00167075 0.00045375 0
0.00164059 0.000461599 0
0.0016394 0.000479551 0
0.00162881 0.00046615 0
0.00162975 0.00044875 0
0.00165025 0.00045125 0
0.00164 0.00045 0
0.00161754 0.000458641 0
0.00161722 0.000478101 0
0.00159956 0.000458294 0
0.00160925 0.00044625 0
0.0016195 0.0004475 0
0.00157667 0.000460322 0
0.00158875 0.00044375 0
0.00159194 0.000480155 0
0.001599 0.000445 0
0.0015785 0.0004425 0
0.00155808 0.000456757 0
0.00155647 0.000476701 0
0.00154059 0.000466642 0
0.00153756 0.000450083 0
0.00154839 0.000450446 0
0.00156825 0.00044125 0
0.00151954 0.000480508 0
0.00154052 0.00048477 0
0.00153 0.0005 0
0.00154775 0.00043875 0
0.00152142 0.000456625 0
0.00152821 0.000445753 0
0.0015375 0.0004375 0
0.001504 0.0005 0
0.00149644 0.000485168 0
0.00151787 0.000443178 0
0.00152725 0.00043625 0
0.00150675 0.00043375 0
0.001517 0.000435 0
0.00148119 0.000450887 0
0.00148072 0.000475756 0
0.00146584 0.000463516 0
0.00150008 0.00046396 0
0.00149351 0.00044543 0
0.0015061 0.000446252 0
0.001476 0.00043 0
0.00148625 0.00043125 0
0.00146492 0.000482975 0
0.00144888 0.000473562 0
0.00146676 0.000444259 0
0.00145255 0.000453656 0
0.00145652 0.000438669 0
0.00141401 0.000479821 0
0.001426 0.0005 0
0.0014 0.0005 0
0.00144374 0.000438862 0
0.0014555 0.0004275 0
0.001435 0.000425 0
0.00144525 0.00042625 0
0.00142746 0.000438121 0
0.00141288 0.000443191 0
0.00141707 0.000432778 0
0.0013921 0.000438992 0
0.00140355 0.00045932 0
0.00138302 0.00045922 0
0.00142912 0.000458869 0
0.00140592 0.000430037 0
0.0014145 0.0004225 0
0.00136458 0.00045869 0
0.00137106 0.00044063 0
0.001394 0.00042 0
0.00138259 0.000428915 0
0.00137484 0.000477094 0
0.00139166 0.000478902 0
0.0013586 0.000478984 0
0.00133449 0.000478649 0
0.00134717 0.000461848 0
0.00137256 0.000425134 0
0.00135323 0.000424541 0
0.00136325 0.00041625 0
0.00136122 0.00042876 0
0.00131206 0.000447284 0
0.00133168 0.000456738 0
0.00131773 0.000465243 0
0.00134756 0.000440343 0
0.00132747 0.000436463 0
0.00133483 0.000426786 0
0.00131081 0.00041867 0
0.00132382 0.000422815 0
0.00131507 0.00043122 0
0.00131059 0.000480123 0
0.0013325 0.0004125 0
0.0012915 0.0004075 0
0.0012982 0.000418199 0
0.00128915 0.000426216 0
0.00126366 0.000447574 0
0.00127331 0.000430908 0
0.00128781 0.000444872 0
0.00125336 0.000428376 0
0.00130218 0.000431077 0
0.00127894 0.000416344 0
0.00124774 0.000469608 0
0.00127668 0.000464148 0
0.00126591 0.00048331 0
0.00126722 0.000418415 0
0.00125768 0.000411931 0
0.00124326 0.000413546 0
0.0012505 0.0004025 0
0.00122408 0.000450118 0
0.00120276 0.000447432 0
0.0012139 0.000432235 0
0.00124336 0.000444132 0
0.00123056 0.000427595 0
0.00122977 0.000409049 0
0.0012185 0.000469217 0
0.00122676 0.000485947 0
0.00120525 0.000486094 0
0.00121479 0.000413153 0
0.00119547 0.000424221 0
0.00120249 0.000407448 0
0.00119925 0.00039625 0
0.00119346 0.000406114 0
0.00117479 0.000447279 0
0.00114726 0.000445259 0
0.0011571 0.000427814 0
0.00119443 0.000466611 0
0.00117447 0.000421596 0
0.00118421 0.00040752 0
0.00117409 0.000404437 0
0.00116775 0.000470073 0
0.001179 0.0004855 0
0.00115473 0.000484802 0
0.0011685 0.0003925 0
0.00117875 0.00039375 0
0.00115454 0.000400551 0
0.001148 0.00039 0
0.00115825 0.00039125 0
0.00111703 0.000423398 0
0.00113786 0.000426731 0
0.00112589 0.000443871 0
0.00113234 0.000406671 0
0.00114754 0.000413371 0
0.001106 0.000442326 0
0.00109703 0.000424261 0
0.0011275 0.0003875 0
0.00113775 0.00038875 0
0.00110211 0.000480875 0
0.00108244 0.000471951 0
0.00109312 0.000458413 0
0.00111755 0.000399116 0
0.0010944 0.000392972 0
0.00110415 0.000405876 0
0.00108839 0.000407536 0
0.00106472 0.000476905 0
0.00107274 0.000457868 0
0.00108011 0.000392415 0
0.00106885 0.000404365 0
0.00106625 0.000388708 0
0.00105286 0.000419254 0
0.00105055 0.000395469 0
0.00104215 0.000439764 0
0.00106346 0.000440629 0
0.00100945 0.000451249 0
0.00102825 0.00045614 0
0.00101189 0.000468452 0
0.00107625 0.00038125 0
0.00105575 0.00037875 0
0.001066 0.00038 0
0.00103352 0.000476905 0
0.00101803 0.00048465 0
0.00103685 0.000389398 0
0.0010245 0.00038825 0
0.00103525 0.00037625 0
0.00101092 0.000399779 0
0.00101267 0.000382619 0
0.00101382 0.00042025 0
0.00103187 0.000405286 0
0.00103359 0.000424605 0
0.000987383 0.00045447 0
0.000999411 0.000435161 0
0.0009744 0.000433145 0
0.0010045 0.0003725 0
0.00101475 0.00037375 0
0.000970845 0.000465215 0
0.000952614 0.000467664 0
0.000961768 0.000449944 0
0.00099729 0.000387704 0
0.000978901 0.00039598 0
0.000985823 0.000381492 0
0.000962289 0.000393709 0
0.000974259 0.000381279 0
0.00097375 0.00036875 0
0.000963045 0.000376631 0
0.000958 0.0005 0
0.000932 0.0005 0
0.000947542 0.00048457 0
0.000949675 0.000385245 0
0.000936214 0.000389472 0
0.000940006 0.000374906 0
0.000966411 0.000412573 0
0.000944241 0.000407079 0
0.000903569 0.000424993 0
0.000921701 0.000402409 0
0.000927439 0.000427744 0
0.000889795 0.000409067 0
0.000903071 0.00040248 0
0.000925447 0.000377721 0
0.00093275 0.00036375 0
0.000907708 0.000387127 0
0.000911303 0.000370839 0
0.000911933 0.000455145 0
0.000930678 0.000473279 0
0.000911886 0.000482603 0
0.000887724 0.000388076 0
0.000899595 0.000375116 0
0.000902 0.00036 0
0.000889241 0.00036954 0
0.000836977 0.000459472 0
0.000836223 0.000483578 0
0.000820467 0.000474142 0
0.000871227 0.000403557 0
0.000861 0.000355 0
0.000868368 0.000365714 0
0.00085484 0.00036588 0
0.000847735 0.000402845 0
0.000823121 0.000421599 0
0.000826582 0.000398147 0
0.000846943 0.00042454 0
0.000838832 0.000378613 0
0.000835569 0.000363808 0
0.000844098 0.00036291 0
0.00085075 0.00035375 0
0.000851465 0.000477164 0
0.00083025 0.00035125 0
0.000822824 0.000368659 0
0.00081446 0.000357362 0
0.000805884 0.000371794 0
0.000753471 0.000477524 0
0.000738313 0.000473927 0
0.000739102 0.000461526 0
0.00079826 0.000358588 0
0.000788607 0.000376287 0
0.000781733 0.000357987 0
0.000816783 0.000384471 0
0.000807975 0.000404095 0
0.000752138 0.000404775 0
0.000767682 0.000417043 0
0.000749617 0.000421803 0
0.000752903 0.000384008 0
0.000738293 0.000393136 0
0.000772614 0.000394048 0
0.00076863 0.000371878 0
0.000765995 0.000354121 0
0.000779 0.000345 0
0.00071811 0.000453059 0
0.000738069 0.000437967 0
0.000752085 0.000365972 0
0.000728123 0.000374583 0
0.000741845 0.000354664 0
[...]
CELL_DATA 58684
VECTORS velocity DOUBLE
64.5818 0.344853 0
68.7166 -0.000137164 0
68.6894 0.000315279 0
68.7263 -0.000450842 0
68.7053 0.000411585 0
68.7318 -0.00369918 0
68.7222 0.00869424 0
67.6748 -0.0190164 0
67.6335 -0.0314206 0
67.579 -0.014258 0
67.5974 -0.0188599 0
67.5999 -0.438104 0
67.5664 -0.17566 0
67.6408 -0.134704 0
67.5737 -0.291438 0
67.7347 -0.158243 0
67.6778 -0.150998 0
67.9316 -0.127761 0
67.5426 -0.481405 0
68.2565 -0.092777 0
67.7136 -0.143035 0
67.9219 -0.315396 0
71.9543 -1.53604 0
67.7435 0.0141795 0
67.6824 0.0805121 0
67.7483 0.0404236 0
67.6148 0.209218 0
67.6286 0.0317285 0
67.6519 0.295711 0
67.5686 0.0810923 0
67.7124 0.216176 0
67.5721 0.0420642 0
67.5971 0.230774 0
67.6597 0.167281 0
67.4131 1.11076 0
67.6132 0.0680396 0
67.7469 0.246194 0
67.7035 0.343083 0
68.7326 -0.00471299 0
68.7368 -0.00121765 0
68.7446 -0.00608526 0
68.7441 -0.0078778 0
68.7418 -0.00254003 0
68.7483 -0.00801979 0
68.7453 -0.0116719 0
68.7418 -0.0126091 0
68.7397 -0.00467284 0
68.7425 -0.0156281 0
68.7382 -0.0166629 0
68.7309 -0.00630521 0
68.7371 -0.0193469 0
68.7298 -0.022253 0
68.7246 -0.0203391 0
68.7177 -0.00884341 0
68.718 -0.0256447 0
68.7112 -0.0235501 0
68.7008 -0.010106 0
68.7084 -0.0328697 0
68.6992 -0.0318732 0
68.6903 -0.0241741 0
68.6878 -0.00749333 0
68.6943 -0.0385999 0
68.6778 -0.0303249 0
68.6788 -0.00756772 0
68.6895 -0.0480487 0
68.6836 -0.0499667 0
68.6827 -0.0405564 0
68.6763 -0.00754027 0
68.6816 -0.0541149 0
68.6816 -0.0417075 0
68.6773 -0.00772366 0
68.6862 -0.057968 0
68.6874 -0.0466648 0
68.6987 -0.0676758 0
68.6889 -0.00588222 0
68.6974 -0.0489135 0
68.7035 -0.032562 0
68.7093 -0.00706349 0
68.7227 -0.0680905 0
68.7549 -0.0531892 0
68.7245 -0.0551863 0
68.7495 -0.00446823 0
68.7658 -0.0375351 0
68.7581 -0.0686606 0
68.8232 -0.0433404 0
68.8068 -0.0549417 0
68.8114 -0.0758196 0
68.8407 -0.0935246 0
68.8945 -0.0555803 0
68.9412 -0.078462 0
68.869 -0.0691165 0
68.9185 -0.0995651 0
68.9703 -0.0731747 0
68.961 -0.0773551 0
68.9904 -0.102174 0
69.0924 -0.0897662 0
69.0324 -0.0846133 0
69.0624 -0.105902 0
69.1234 -0.123054 0
69.1466 -0.0962193 0
69.2354 -0.104728 0
69.1531 -0.0937523 0
69.2554 -0.0352363 0
69.2454 -0.110068 0
69.3205 -0.105817 0
69.2879 -0.116279 0
69.3393 -0.0338427 0
69.3341 -0.113834 0
69.3884 -0.130084 0
69.4553 -0.0630558 0
69.4421 -0.0743361 0
69.394 -0.107356 0
69.4972 -0.128855 0
69.4981 -0.0454502 0
69.5848 -0.110885 0
69.5473 -0.0684458 0
69.6141 0.00056979 0
69.6045 -0.115328 0
69.6452 -0.132506 0
69.7242 -0.105003 0
69.7397 -0.0670144 0
69.6468 -0.0643968 0
69.7373 -0.109917 0
69.7757 -0.0600661 0
69.7978 -0.112673 0
69.7227 -0.0326696 0
69.818 -0.0922029 0
69.7754 -0.027944 0
69.8353 -0.105575 0
69.8594 -0.102687 0
69.8317 -0.049003 0
69.8758 -0.0698941 0
69.7972 -0.0300976 0
69.9043 -0.0722338 0
69.7918 -0.0299236 0
69.8993 -0.0823131 0
69.9274 -0.050127 0
69.8782 -0.0294302 0
69.8725 -0.0211663 0
69.8886 -0.0449472 0
69.9215 -0.0401213 0
69.7907 -0.0086544 0
69.9254 -0.0227918 0
69.9347 -0.0144545 0
69.8684 0.0128488 0
69.8319 0.00587964 0
69.9163 -0.0106835 0
69.9101 0.000186276 0
69.7791 0.00439705 0
69.9064 0.0233966 0
69.9231 0.0339007 0
69.8627 0.025199 0
69.8102 0.016226 0
69.904 0.0366202 0
69.9071 0.0400213 0
69.7757 0.00768068 0
69.9217 0.0468128 0
69.9192 0.0533469 0
69.879 0.0320711 0
69.9007 0.0451332 0
69.9029 0.0173285 0
69.924 0.0554043 0
69.8502 0.0107769 0
69.9297 0.050758 0
69.9503 0.0230271 0
69.891 0.000143795 0
69.9902 -0.00333619 0
70.0064 -0.0176189 0
70.003 -0.0126451 0
70.0902 -0.0457269 0
70.0001 -0.000376719 0
70.0283 -0.0236674 0
70.0512 -0.0177208 0
70.1029 -0.085127 0
70.1497 -0.123988 0
70.0673 -0.076997 0
70.2056 -0.0693234 0
70.2741 -0.112886 0
70.1909 -0.161011 0
70.3642 -0.0955235 0
70.2765 -0.209137 0
70.3262 -0.25641 0
70.3658 -0.31032 0
70.4559 0.00223754 0
70.5328 -0.391539 0
70.3662 -0.262676 0
70.6409 -0.304718 0
70.7745 -0.40955 0
70.5721 -0.474174 0
70.6867 -0.516528 0
70.6674 -0.0937857 0
70.7554 -0.564789 0
70.8012 -0.674693 0
70.8414 -0.651943 0
71.2768 -0.167892 0
70.902 -0.527789 0
71.104 -0.843258 0
71.3777 -0.661908 0
71.2274 -0.549767 0
71.2399 -0.949643 0
71.1872 -0.916838 0
71.2561 -0.141766 0
71.389 -1.0792 0
71.4645 -1.00341 0
71.9864 -0.196894 0
71.6583 -1.14902 0
71.4709 -0.736763 0
71.9649 -0.702319 0
72.033 -0.930306 0
71.819 -1.02749 0
71.7665 -1.24953 0
72.0368 -0.440823 0
72.086 -1.17876 0
72.0009 -1.39309 0
72.3315 -1.37005 0
72.3357 -0.0195837 0
72.2884 -1.11067 0
72.3394 -1.41206 0
72.2119 -0.342157 0
72.4275 -1.46161 0
72.637 -0.811768 0
72.5081 -1.52563 0
72.8155 -0.439626 0
72.7291 -1.24358 0
72.675 -1.45766 0
72.6586 -0.237361 0
72.8942 -1.47173 0
73.0782 -1.36792 0
72.9054 -1.20659 0
72.9921 -0.740417 0
73.1184 -1.52153 0
73.148 -0.640663 0
73.3802 -0.111975 0
73.0196 -1.22981 0
73.2299 -1.46549 0
73.3321 -1.54783 0
73.416 -0.561218 0
73.4488 -1.3399 0
73.5824 -1.42922 0
73.5572 -0.194897 0
73.7089 -1.41569 0
73.6083 -1.51296 0
73.5813 -1.21721 0
73.7289 -0.675888 0
73.8323 -0.802898 0
73.7275 -1.55375 0
74.0516 -0.0141771 0
73.8072 -1.62735 0
73.9174 -1.60887 0
73.8754 -1.65793 0
74.3273 -0.590366 0
74.1539 -1.53061 0
74.2682 -1.64792 0
74.4479 -0.0153078 0
74.3202 -1.87789 0
74.683 -1.85763 0
74.4592 -1.30671 0
74.5005 -0.713734 0
74.5313 -1.96963 0
74.6703 -0.871525 0
74.8235 -0.114635 0
74.6993 -1.60917 0
74.8264 -2.0483 0
75.0681 -2.03269 0
74.9677 -0.44165 0
75.4 -1.73981 0
75.1931 -2.02834 0
75.0193 -0.198372 0
75.4119 -2.18635 0
75.741 -2.14455 0
75.7488 -1.25912 0
75.0144 -0.00797737 0
76.077 -1.9942 0
75.7264 -0.596828 0
76.0248 -0.58945 0
76.1042 -1.74361 0
75.9658 -1.27813 0
76.721 -1.56902 0
75.2405 -0.093231 0
76.6169 -1.77538 0
76.5418 -0.88816 0
77.0852 -1.04443 0
75.1034 -0.0366768 0
77.2952 -0.152938 0
77.1254 0.137455 0
74.3635 0.0944181 0
77.4875 -0.660234 0
77.6319 0.0130989 0
75.4538 0.65602 0
75.0696 0.221897 0
76.4842 0.0629884 0
77.6102 0.632863 0
74.5695 0.18018 0
77.2259 1.53687 0
77.5811 0.789092 0
77.5862 1.043 0
74.1003 0.908776 0
76.2324 1.75046 0
77.2427 1.91025 0
74.0627 0.14629 0
77.0459 2.4101 0
76.9622 2.33491 0
76.1013 3.69359 0
72.6159 0.253002 0
76.917 3.43477 0
75.3298 2.3542 0
73.7603 1.03826 0
73.6647 2.08672 0
76.7388 3.80109 0
75.9926 4.24247 0
73.0158 0.43236 0
75.8322 4.85394 0
68.7276 0.00541269 0
68.7341 0.00130618 0
68.7524 0.0110426 0
68.7528 0.0135601 0
68.7582 0.00262583 0
68.7804 0.0152888 0
68.7783 0.0207957 0
68.7778 0.0188045 0
68.7841 0.00508049 0
68.7976 0.0258134 0
68.7939 0.0229865 0
68.7921 0.00683804 0
68.8133 0.0318912 0
68.8057 0.0351103 0
68.8022 0.0286902 0
68.8026 0.00965448 0
68.8137 0.0417975 0
68.8074 0.0359977 0
68.8039 0.0114191 0
68.8267 0.0506765 0
68.8179 0.0487187 0
68.833 0.0621817 0
68.8108 0.0332015 0
68.8324 0.0389338 0
68.8495 0.0640889 0
68.8177 0.0418853 0
68.8429 0.06412 0
68.8459 0.0515611 0
68.8557 0.0704978 0
68.8333 0.037176 0
68.853 0.0508143 0
68.8691 0.074941 0
68.8488 0.0361255 0
68.8811 0.0775966 0
68.8799 0.0701248 0
68.8864 0.0533574 0
68.868 0.040765 0
68.8821 0.0522451 0
68.9042 0.0472482 0
68.8879 0.0350374 0
68.9255 0.0760831 0
68.9092 0.0266992 0
68.9368 0.0468235 0
68.9107 0.0401613 0
68.9384 0.056014 0
68.9805 0.0541675 0
68.9812 0.0292901 0
68.965 0.0515999 0
69.0109 0.057404 0
69.0133 0.0560424 0
69.0521 0.0200291 0
69.0358 0.0260926 0
69.0652 0.0385825 0
69.0985 0.0543097 0
69.1009 0.0198209 0
69.1209 0.0310929 0
69.1362 0.0432747 0
69.1586 0.0203013 0
69.1181 0.0299962 0
69.1738 0.0400801 0
69.179 0.0323364 0
69.1984 0.0149278 0
69.218 0.0111575 0
69.2341 0.0224011 0
69.1239 0.0153431 0
69.2683 0.0228104 0
69.3208 0.021784 0
69.291 0.0214009 0
69.2654 0.0136676 0
69.341 0.0199602 0
69.353 0.0141153 0
69.3803 0.00576785 0
69.3251 0.0194993 0
69.3914 0.0173549 0
69.4154 0.0240931 0
69.3346 0.00669451 0
69.3971 0.0152965 0
69.4605 0.0350275 0
69.4079 0.0144106 0
69.4722 0.0283415 0
69.5071 0.0437705 0
69.4779 0.0324881 0
69.4892 0.0120485 0
69.5152 0.0428367 0
69.5398 0.05515 0
69.4929 0.0171597 0
69.5599 0.0690996 0
69.5195 0.0490049 0
69.5785 0.0621001 0
69.5337 0.0387333 0
69.5908 0.0879131 0
69.6435 0.128185 0
69.5775 0.0355193 0
69.5978 0.0853227 0
69.6714 0.141333 0
69.6412 0.10636 0
69.578 0.0377164 0
69.6836 0.137323 0
69.7022 0.154198 0
69.6308 0.0362399 0
69.6895 0.0688465 0
69.7256 0.139538 0
69.7557 0.188925 0
69.6734 0.100512 0
69.783 0.182988 0
69.807 0.204211 0
69.805 0.061488 0
69.7761 0.115204 0
69.8639 0.225995 0
69.8618 0.192477 0
69.7115 0.0574195 0
69.886 0.21296 0
69.9511 0.222082 0
69.916 0.0740578 0
69.9133 0.186274 0
70.0461 0.265262 0
70.0266 0.186132 0
69.8206 0.0647787 0
70.0819 0.230099 0
70.1889 0.266585 0
69.9839 0.0722797 0
70.1651 0.17987 0
70.1265 0.0703987 0
70.2307 0.183368 0
70.0907 0.107054 0
70.295 0.257553 0
70.3946 0.203026 0
70.2002 0.0471241 0
70.3631 0.201522 0
70.4986 0.196757 0
70.3937 0.0232742 0
70.309 0.169751 0
70.4716 0.144501 0
70.5763 0.166406 0
70.336 0.0277913 0
70.5877 0.128206 0
70.7331 0.151741 0
70.6982 0.100475 0
70.5742 0.0247686 0
70.7811 0.100235 0
70.5011 0.0348609 0
70.5792 0.127781 0
70.7803 0.122766 0
70.9036 0.123991 0
70.9153 0.117289 0
70.5245 -0.00934085 0
70.997 0.129771 0
71.0084 0.12167 0
71.0198 0.126746 0
70.9708 0.0511692 0
71.0656 0.0738442 0
71.0287 0.132693 0
70.7879 0.0302946 0
71.1091 0.174557 0
71.0983 0.175281 0
71.1166 0.177185 0
71.0511 0.0548501 0
71.1448 0.233876 0
71.1917 0.316598 0
71.1955 0.145403 0
71.1476 0.116578 0
71.2105 0.296098 0
71.2308 0.436687 0
71.0703 0.0552913 0
71.2631 0.469938 0
71.2663 0.527208 0
71.3439 0.12027 0
71.3609 0.734732 0
71.3632 0.73617 0
71.5 0.775117 0
71.5061 0.332621 0
71.4438 0.334161 0
71.3734 0.7764 0
71.3974 0.186678 0
71.4631 0.999096 0
71.4853 1.02555 0
71.6136 1.08609 0
71.6081 0.160121 0
71.6472 1.32067 0
71.6588 1.4129 0
71.7543 0.778441 0
72.0566 1.21197 0
71.8957 0.674323 0
71.7534 1.43231 0
71.8251 0.380203 0
71.9731 1.7982 0
71.9826 1.79649 0
71.8989 0.338052 0
72.2049 1.76375 0
72.4348 2.09219 0
72.3195 2.02939 0
72.678 0.480724 0
72.905 2.31443 0
72.9942 2.49258 0
72.27 1.37672 0
73.0101 1.90878 0
72.5891 0.873146 0
73.4204 2.72224 0
73.0406 0.295332 0
73.5233 2.68237 0
73.5617 2.5893 0
72.7111 0.231764 0
73.4572 2.34815 0
74.2217 2.79161 0
74.4422 2.79229 0
73.8114 0.73988 0
74.593 2.73704 0
74.7208 2.93363 0
73.4733 1.76149 0
74.9386 1.94853 0
74.169 0.733964 0
75.0742 2.87685 0
74.3023 0.275027 0
75.3846 2.69346 0
75.5759 2.61559 0
73.9339 0.193005 0
75.3201 2.23741 0
76.0644 2.35587 0
76.3623 2.20026 0
74.7858 0.549157 0
76.1196 2.12031 0
76.5413 2.03608 0
75.5693 1.91597 0
76.4001 1.29352 0
75.0279 0.421128 0
76.2526 1.93063 0
75.1992 0.169958 0
76.8587 1.78257 0
76.9668 1.50854 0
74.9613 0.145215 0
76.6666 1.06427 0
77.0894 1.04706 0
77.2575 0.819801 0
75.4647 0.0824362 0
77.2923 0.526072 0
77.3385 0.407373 0
75.6539 0.0705326 0
77.3023 0.326014 0
76.632 -0.0680757 0
75.8341 0.360282 0
75.5722 0.343938 0
77.2989 0.0065722 0
77.1918 -0.33201 0
77.3913 -0.549503 0
75.3305 0.00944093 0
76.9104 -0.730367 0
77.2751 -1.15181 0
75.4065 -0.00817578 0
76.8105 -0.712678 0
77.2161 -1.58129 0
76.3011 -1.08708 0
75.4413 -0.309599 0
77.1024 -1.81813 0
76.975 -2.08548 0
76.2921 -0.543397 0
75.7957 -2.15848 0
74.3885 -1.78465 0
76.8986 -2.07094 0
74.5165 -0.239195 0
76.725 -2.80726 0
75.268 5.28368 0
75.7376 4.74175 0
71.9526 1.41933 0
75.2321 5.21524 0
73.6893 4.85113 0
74.6257 5.71741 0
72.3002 0.55437 0
74.0223 5.8541 0
73.2999 5.79753 0
71.4967 0.732895 0
73.2577 6.14463 0
76.6785 -3.08876 0
74.7258 -0.140476 0
76.5139 -3.34223 0
75.7587 -3.63571 0
75.2417 -3.11978 0
74.1325 -0.179558 0
75.8691 -4.09953 0
72.545 5.68269 0
75.3584 -4.95087 0
74.0121 -0.95723 0
75.185 -4.79177 0
74.4947 -5.46908 0
70.7839 1.80358 0
74.2836 -5.35792 0
75.0852 -2.94362 0
74.7534 -4.85325 0
73.4097 -3.59446 0
72.5883 -0.606513 0
74.1168 -4.91991 0
73.6292 -5.20348 0
72.1076 5.96467 0
73.6412 -5.26159 0
73.1758 -0.31384 0
72.9961 -5.49039 0
72.5552 -5.96948 0
72.1758 -0.395931 0
71.8726 -6.07972 0
72.21 -4.49846 0
70.8152 -0.500569 0
71.2537 -6.17171 0
71.2417 -3.54029 0
72.2282 -2.73744 0
71.6881 -5.35384 0
70.9211 -5.63006 0
72.6446 3.18326 0
70.2124 0.4219 0
72.1494 2.16609 0
71.2185 -0.0518572 0
70.5933 -6.02365 0
71.9408 5.66788 0
70.0786 0.302786 0
71.4454 4.88129 0
70.0286 -5.99178 0
70.9299 -1.27996 0
69.5119 -4.47197 0
71.4056 6.39286 0
69.3492 1.65162 0
71.3884 6.31097 0
69.9817 5.46304 0
69.5325 0.324333 0
70.4715 5.68062 0
69.8704 -4.62107 0
70.655 -0.373461 0
69.4611 -6.12006 0
69.5176 -5.93294 0
70.6733 6.05255 0
69.4115 5.88332 0
69.08 0.0435725 0
70.1031 6.03119 0
68.7492 3.91965 0
69.0885 1.8767 0
68.8232 -6.07194 0
69.3459 -0.864602 0
69.0764 -5.96934 0
68.484 6.12333 0
68.3995 -5.6403 0
68.7596 -0.862634 0
68.5582 -2.63468 0
67.6481 -5.38608 0
69.5433 -3.09388 0
67.4986 -5.20001 0
68.4513 -0.253521 0
66.8621 -5.00177 0
68.2173 2.36052 0
68.6099 0.38506 0
68.2018 5.26421 0
68.2539 0.101716 0
68.0129 6.04882 0
67.9079 5.72674 0
68.0293 0.178193 0
67.3735 5.07154 0
67.8912 0.112617 0
67.7784 -4.72671 0
68.4508 -0.464268 0
68.6393 4.59036 0
67.4253 0.949667 0
67.1497 4.77904 0
66.8 -4.99518 0
68.5606 -0.195733 0
65.6196 -4.22236 0
67.5731 -0.664547 0
66.1234 -4.26151 0
67.723 2.14812 0
67.753 0.171322 0
68.2602 -3.91377 0
67.743 -0.161914 0
65.6981 -3.98712 0
66.6822 4.34641 0
66.6926 -3.18235 0
67.6619 -0.339729 0
65.8937 -3.45255 0
67.292 2.56216 0
65.7372 1.60796 0
66.3123 3.80959 0
67.1407 -0.967072 0
65.8483 -3.76406 0
67.5039 0.610126 0
66.2618 4.96765 0
67.0666 -1.88752 0
67.7601 -0.10785 0
65.6149 -3.4504 0
66.1405 4.53415 0
67.422 0.913922 0
66.0213 3.62302 0
65.8665 3.54385 0
67.5166 0.571788 0
65.3395 3.18648 0
65.0135 -3.01794 0
67.5912 -0.441256 0
64.763 -3.03285 0
66.3201 -1.49368 0
67.6868 -0.27987 0
64.4493 -2.05765 0
65.3311 3.91395 0
67.2902 0.781629 0
66.1592 2.59933 0
64.8099 -1.83066 0
67.423 -0.456057 0
64.3101 -1.69526 0
64.4901 2.88648 0
67.4241 0.361099 0
64.7346 2.76579 0
64.9248 2.27546 0
67.7578 0.0366857 0
64.402 2.40214 0
65.1245 -1.08118 0
67.2821 -0.650686 0
64.5915 -0.947197 0
63.7991 -0.553007 0
66.6452 -0.702126 0
63.9871 -0.464709 0
66.4055 0.811253 0
67.5536 0.115248 0
65.8892 1.95283 0
64.3405 1.92141 0
67.2919 0.0774714 0
63.8971 1.26983 0
66.896 -0.206563 0
67.6897 -0.168165 0
63.8615 -0.0808419 0
64.1692 0.0455687 0
67.6056 -0.100142 0
65.7368 0.291998 0
64.4697 0.486406 0
67.6492 -0.0952927 0
66.8238 -4.19962 0
67.5397 -0.656853 0
67.678 0.183523 0
67.4776 5.19652 0
68.0269 -5.61734 0
69.9401 -0.730623 0
68.9409 0.830321 0
69.865 6.31736 0
67.5344 0.410302 0
64.991 3.74787 0
64.514 -2.07166 0
67.5867 -0.319291 0
67.448 -0.819709 0
67.0051 -2.78735 0
67.4309 0.985422 0
67.7739 0.275774 0
67.5747 -0.00257139 0
64.2628 1.67174 0
68.1976 0.40091 0
67.5672 1.33764 0
67.818 -1.12557 0
68.8018 -0.565301 0
72.2024 -0.893018 0
72.219 -5.94338 0
73.5272 5.82738 0
72.0432 0.327954 0
67.101 1.3968 0
68.4685 5.90053 0
67.7476 -5.15022 0
68.1348 -1.88607 0
66.4767 -1.14064 0
64.9802 -0.0908953 0
66.2125 4.44851 0
67.3362 1.58088 0
67.2423 -1.42807 0
65.0984 -3.43873 0
76.3464 -3.75643 0
73.9041 -0.455839 0
73.6989 0.509895 0
76.9711 3.07097 0
67.434 -0.981269 0
67.6813 -0.0516401 0
67.6113 0.237429 0
67.9805 0.65042 0
70.6271 0.555185 0
70.496 3.13023 0
69.4227 -1.54402 0
71.3085 -1.26063 0
69.8023 3.76909 0
71.7371 6.02795 0
70.9697 -6.13605 0
70.2439 -1.44751 0
72.7822 1.13824 0
73.7473 3.64715 0
72.5621 -1.97861 0
73.1873 -0.0205438 0
75.3864 -0.0498506 0
77.3853 -0.721375 0
77.1659 -1.09531 0
74.7046 0.00157057 0
75.1781 0.0136425 0
76.9796 1.44494 0
75.7786 -1.9839 0
75.0841 -0.223577 0
68.0178 -1.19435 0
67.7154 -0.495819 0
67.5534 1.09313 0
68.1253 0.810877 0
67.4812 1.11307 0
67.6567 0.340218 0
67.7394 -0.164979 0
67.4589 -1.06932 0
74.613 0.538153 0
75.6882 0.968542 0
74.8504 -0.694366 0
74.929 -0.0740789 0
65.7781 -0.737254 0
67.6314 -0.236944 0
66.9462 -0.466091 0
67.5604 -0.54172 0
67.6621 0.299675 0
67.277 1.0846 0
75.6929 2.48093 0
74.5662 0.441589 0
74.6076 -0.0180288 0
74.2742 -1.76231 0
69.7164 -0.0389559 0
69.2792 -2.19957 0
69.9131 1.42504 0
69.0804 0.375181 0
67.1816 3.21464 0
66.8306 5.47079 0
66.7789 -4.57414 0
67.5271 -2.52858 0
67.8211 -1.70072 0
66.9058 -1.76778 0
67.2605 3.64768 0
67.4161 1.85184 0
75.1656 -0.30227 0
75.1049 -0.0957005 0
75.4722 0.061797 0
76.4909 0.786426 0
68.5267 -4.01306 0
69.2372 -3.88978 0
69.0006 3.59924 0
69.3444 6.29626 0
68.0625 -3.06154 0
68.8356 -1.84548 0
68.6868 2.51787 0
68.1495 1.30385 0
74.1046 2.94412 0
73.4718 0.368406 0
73.8489 -0.0209498 0
73.4881 -1.49446 0
66.8018 0.854432 0
67.6877 0.0444828 0
74.6529 -0.268776 0
75.1623 -1.22152 0
75.6092 0.849199 0
74.7411 0.144167 0
67.9031 -0.77824 0
67.5644 -1.12689 0
68.0888 1.48822 0
67.5488 0.770287 0
67.7173 -0.21473 0
67.5522 -0.808983 0
67.5358 0.484115 0
67.6726 0.190288 0
64.5257 1.40855 0
66.5403 1.24891 0
73.1077 -2.22883 0
75.4469 -4.53742 0
76.2714 4.17743 0
72.9715 1.61998 0
66.4738 -1.75593 0
64.9972 -2.12837 0
72.2739 0.322168 0
72.1249 1.88465 0
71.422 0.0905955 0
71.6146 1.35743 0
73.0015 -1.42635 0
72.8336 -0.233574 0
72.1199 -1.32886 0
72.1447 -0.0220796 0
74.0323 -0.458732 0
73.9985 -1.09876 0
74.1368 1.05847 0
73.8035 0.0177855 0
67.681 0.261874 0
67.2162 0.618273 0
66.1148 0.41521 0
64.7218 0.728254 0
67.4521 -0.32909 0
67.6498 -0.253486 0
66.8381 0.277001 0
66.8048 -0.603802 0
77.0255 -1.87195 0
74.8126 -1.14404 0
75.7783 1.25141 0
77.5482 0.155906 0
67.5618 -0.0880045 0
67.5715 -0.473565 0
67.6578 0.0688053 0
67.6533 0.271133 0
73.2702 -0.350692 0
73.2645 -0.861029 0
73.1285 0.887731 0
72.4898 0.245124 0
71.2328 0.11306 0
71.2609 0.427379 0
71.4791 -1.15771 0
71.5446 -0.255218 0
67.6563 -0.792842 0
68.2675 -1.75423 0
67.8362 1.39513 0
67.6087 1.10597 0
68.0986 2.38239 0
66.9433 1.53026 0
67.3681 -1.55622 0
67.8099 -2.22713 0
75.9758 -0.0830671 0
76.91 1.04073 0
76.174 -1.79879 0
76.0735 -0.380028 0
67.0883 -1.01395 0
67.1482 -1.19558 0
67.1976 1.08921 0
66.7813 1.09707 0
71.164 0.249117 0
70.988 0.0532596 0
70.9492 -0.144769 0
71.0148 -0.756012 0
72.0635 3.14424 0
73.5698 5.17382 0
72.9317 -5.90639 0
72.5704 -2.37444 0
65.409 -2.54476 0
66.9506 -2.71692 0
71.6818 -2.21124 0
71.997 -0.794298 0
71.0677 0.35636 0
73.1592 2.21122 0
65.1909 3.59362 0
66.3787 2.21354 0
72.4498 -0.0939715 0
72.6746 -0.949427 0
72.0408 0.708413 0
72.0055 0.175923 0
74.1991 -0.242564 0
74.0857 -1.02373 0
74.5725 1.29488 0
73.7919 0.186693 0
70.6932 1.10311 0
69.5464 0.291562 0
70.2326 -0.256509 0
70.636 -2.29998 0
75.4657 1.0329 0
75.7342 2.18515 0
74.8683 -1.91461 0
75.396 -0.890034 0
70.0666 -2.86208 0
70.6891 -1.35809 0
70.2765 2.09029 0
72.0774 4.42263 0
70.8796 0.0949279 0
70.7074 0.0148816 0
70.7072 -0.12873 0
70.3818 -0.303955 0
71.7321 -0.341339 0
71.9798 -0.0136434 0
71.5646 0.137579 0
71.2801 0.378662 0
68.604 0.426537 0
68.4426 1.1009 0
68.6173 -0.949883 0
69.1822 -0.271475 0
69.644 2.24511 0
68.5772 1.63329 0
68.0972 -2.27891 0
67.5691 -2.26678 0
75.409 -0.197549 0
75.218 -0.113084 0
74.9914 0.0805263 0
75.6139 -0.0886214 0
68.5609 3.05132 0
68.8887 2.09878 0
68.1912 -0.68332 0
68.0904 -0.249663 0
67.999 0.238652 0
68.4217 0.75698 0
66.2267 -0.652804 0
66.9498 -1.11621 0
76.6988 -2.57575 0
74.9147 -1.35171 0
74.7822 2.59947 0
77.2408 2.36188 0
67.3709 -1.03752 0
67.7515 -0.177235 0
67.59 0.313173 0
67.4008 1.01168 0
67.6075 0.10484 0
67.593 0.617051 0
67.7138 -0.328902 0
67.7835 -0.0370659 0
65.5323 -0.142619 0
63.8439 0.216167 0
71.9573 2.39002 0
74.6758 2.02556 0
73.5968 -1.75447 0
74.0797 -3.51896 0
66.9727 1.69571 0
66.6524 0.964021 0
67.7685 -0.0312221 0
67.2334 -0.0468452 0
69.1023 5.14602 0
67.5198 3.2279 0
68.7165 -3.26806 0
68.0773 -5.81117 0
66.8171 0.745722 0
67.4361 0.583169 0
74.1368 1.39464 0
74.4965 2.90281 0
73.7807 -1.52177 0
74.0128 -0.401625 0
70.9864 -0.187912 0
71.3862 -0.138491 0
71.2389 0.0474099 0
71.1018 0.155522 0
77.1075 -1.04558 0
76.3843 0.35744 0
76.3904 0.00100296 0
77.3317 -0.191131 0
66.9865 0.124131 0
66.4629 -1.34319 0
67.3959 1.26559 0
67.5348 1.61193 0
67.6676 -1.76232 0