# vtk DataFile Version 3.0
Unstructured Grid for Triangles
ASCII
DATASET UNSTRUCTURED_GRID
POINTS 29612 DOUBLE
-0.000272397 1.23686e-05 0
-0.000295789 9.5838e-06 0
-0.000277865 -3.1235e-06 0
0.002024 0.0005 0
0.00203975 0.00049875 0
0.00205 0.0005 0
0.00203975 -0.00049875 0
0.002024 -0.0005 0
0.00205 -0.0005 0
0.0020295 0.0004975 0
0.0020295 -0.0004975 0
0.00201925 0.00049625 0
0.00201925 -0.00049625 0
-0.000529747 -0.000479887 0
-0.00055 -0.0005 0
-0.000524 -0.0005 0
-0.000505983 -0.000484325 0
-0.000498 -0.0005 0
-0.000472 -0.0005 0
-0.000483864 -0.000487761 0
-0.000446 -0.0005 0
-0.000459 -0.000484239 0
-0.000429453 -0.000424878 0
-0.000447486 -0.000420717 0
-0.000441829 -0.000436609 0
-0.000512578 -0.000462101 0
-0.000493078 -0.000453594 0
-0.00050706 -0.000439006 0
-0.000419243 -0.000477545 0
-0.000440307 -0.000471837 0
-0.00043691 -0.000486724 0
-0.000516129 -0.000420948 0
-0.000495355 -0.000415432 0
-0.000511646 -0.00040128 0
-0.000394697 -0.000481197 0
-0.000406302 -0.000455143 0
-0.000537257 -0.000388197 0
-0.000531099 -0.000407297 0
-0.000523982 -0.000388328 0
-0.000370063 -0.000472956 0
-0.000368 -0.0005 0
-0.00035308 -0.000485302 0
-0.0005072 -0.00037867 0
-0.000485506 -0.000383975 0
-0.000490949 -0.000359622 0
-0.000337127 -0.000484331 0
-0.000316 -0.0005 0
-0.000326495 -0.00047415 0
-0.00055 -0.00035 0
-0.000531201 -0.000370361 0
-0.000528367 -0.000346817 0
-0.000363898 -0.000448809 0
-0.000383315 -0.000460336 0
-3.26269e-05 -0.000415503 0
-5.99662e-05 -0.000409556 0
-5.46944e-05 -0.000429488 0
-0.000529747 0.000479887 0
-0.00055 0.0005 0
-0.00055 0.000475 0
-0.00055 0.00045 0
-0.000534834 0.000429171 0
-0.000526943 0.000442611 0
-0.000534026 0.000460176 0
-0.000531099 0.000407297 0
-0.000511672 0.000401178 0
-0.000516129 0.000420948 0
-0.000524 0.0005 0
-0.000505983 0.000484325 0
-0.000531201 0.000370361 0
-0.0005072 0.00037867 0
-0.000523982 0.000388328 0
-0.00048341 0.000469132 0
-0.000483679 0.000487539 0
-0.000528367 0.000346817 0
-0.00055 0.000325 0
-0.000525657 0.000328474 0
-0.000498 0.0005 0
-0.000530382 0.0003125 0
-0.000419243 0.000477545 0
-0.000440015 0.00047335 0
-0.000425917 0.000463678 0
-0.000435138 0.000262661 0
-0.000414982 0.000274462 0
-0.000435654 0.000285217 0
-0.000459 0.000484239 0
-0.000436852 0.000487027 0
-0.000446 0.0005 0
-0.000533308 0.000292503 0
-0.00055 0.000275 0
-0.000523377 0.000276953 0
-0.000425282 0.000446352 0
-0.000409368 0.000435728 0
-0.000406302 0.000455143 0
0.002009 0.000495 0
0.001998 0.0005 0
0.00199875 0.00049375 0
0.0019885 0.0004925 0
0.001972 0.0005 0
0.00197825 0.00049125 0
0.001968 0.00049 0
0.00195775 0.00048875 0
0.001946 0.0005 0
0.0019475 0.0004875 0
0.00193725 0.00048625 0
0.00192 0.0005 0
0.001927 0.000485 0
0.00191675 0.00048375 0
0.0019065 0.0004825 0
0.001894 0.0005 0
0.00189625 0.00048125 0
0.001886 0.00048 0
0.001868 0.0005 0
0.00187575 0.00047875 0
0.0018655 0.0004775 0
0.00185515 0.00048575 0
0.001842 0.0005 0
0.001845 0.000475 0
0.00185525 0.00047625 0
0.00182564 0.0004829 0
0.001816 0.0005 0
0.0018245 0.0004725 0
0.00183475 0.00047375 0
0.00181425 0.00047125 0
0.00180295 0.000482657 0
0.00179 0.0005 0
0.00179375 0.00046875 0
0.001804 0.00047 0
0.00178168 0.000480619 0
0.001764 0.0005 0
0.00177325 0.00046625 0
0.0017835 0.0004675 0
0.00176428 0.000476631 0
0.001763 0.000465 0
0.001738 0.0005 0
0.001751 0.000484164 0
0.00175275 0.00046375 0
0.00174025 0.000475632 0
0.001712 0.0005 0
0.00172615 0.000478449 0
0.001722 0.00046 0
0.00173225 0.00046125 0
0.0017015 0.0004575 0
0.00171243 0.00047381 0
0.00169554 0.000479999 0
0.001686 0.0005 0
0.00167507 0.000479751 0
0.00168498 0.000464861 0
0.00166 0.0005 0
0.0016558 0.000471459 0
0.00167135 0.000462887 0
0.001681 0.000455 0
0.0016605 0.0004525 0
0.00167075 0.00045375 0
0.00164059 0.000461599 0
0.0016394 0.000479551 0
0.00162881 0.00046615 0
0.00162975 0.00044875 0
0.00165025 0.00045125 0
0.00164 0.00045 0
0.00161754 0.000458641 0
0.00161722 0.000478101 0
0.00159956 0.000458294 0
0.00160925 0.00044625 0
0.0016195 0.0004475 0
0.00157667 0.000460322 0
0.00158875 0.00044375 0
0.00159194 0.000480155 0
0.001599 0.000445 0
0.0015785 0.0004425 0
0.00155808 0.000456757 0
0.00155647 0.000476701 0
0.00154059 0.000466642 0
0.00153756 0.000450083 0
0.00154839 0.000450446 0
0.00156825 0.00044125 0
0.00151954 0.000480508 0
0.00154052 0.00048477 0
0.00153 0.0005 0
0.00154775 0.00043875 0
0.00152142 0.000456625 0
0.00152821 0.000445753 0
0.0015375 0.0004375 0
0.001504 0.0005 0
0.00149644 0.000485168 0
0.00151787 0.000443178 0
0.00152725 0.00043625 0
0.00150675 0.00043375 0
0.001517 0.000435 0
0.00148119 0.000450887 0
0.00148072 0.000475756 0
0.00146584 0.000463516 0
0.00150008 0.00046396 0
0.00149351 0.00044543 0
0.0015061 0.000446252 0
0.001476 0.00043 0
0.00148625 0.00043125 0
0.00146492 0.000482975 0
0.00144888 0.000473562 0
0.00146676 0.000444259 0
0.00145255 0.000453656 0
0.00145652 0.000438669 0
0.00141401 0.000479821 0
0.001426 0.0005 0
0.0014 0.0005 0
0.00144374 0.000438862 0
0.0014555 0.0004275 0
0.001435 0.000425 0
0.00144525 0.00042625 0
0.00142746 0.000438121 0
0.00141288 0.000443191 0
0.00141707 0.000432778 0
0.0013921 0.000438992 0
0.00140355 0.00045932 0
0.00138302 0.00045922 0
0.00142912 0.000458869 0
0.00140592 0.000430037 0
0.0014145 0.0004225 0
0.00136458 0.00045869 0
0.00137106 0.00044063 0
0.001394 0.00042 0
0.00138259 0.000428915 0
0.00137484 0.000477094 0
0.00139166 0.000478902 0
0.0013586 0.000478984 0
0.00133449 0.000478649 0
0.00134717 0.000461848 0
0.00137256 0.000425134 0
0.00135323 0.000424541 0
0.00136325 0.00041625 0
0.00136122 0.00042876 0
0.00131206 0.000447284 0
0.00133168 0.000456738 0
0.00131773 0.000465243 0
0.00134756 0.000440343 0
0.00132747 0.000436463 0
0.00133483 0.000426786 0
0.00131081 0.00041867 0
0.00132382 0.000422815 0
0.00131507 0.00043122 0
0.00131059 0.000480123 0
0.0013325 0.0004125 0
0.0012915 0.0004075 0
0.0012982 0.000418199 0
0.00128915 0.000426216 0
0.00126366 0.000447574 0
0.00127331 0.000430908 0
0.00128781 0.000444872 0
0.00125336 0.000428376 0
0.00130218 0.000431077 0
0.00127894 0.000416344 0
0.00124774 0.000469608 0
0.00127668 0.000464148 0
0.00126591 0.00048331 0
0.00126722 0.000418415 0
0.00125768 0.000411931 0
0.00124326 0.000413546 0
0.0012505 0.0004025 0
0.00122408 0.000450118 0
0.00120276 0.000447432 0
0.0012139 0.000432235 0
0.00124336 0.000444132 0
0.00123056 0.000427595 0
0.00122977 0.000409049 0
0.0012185 0.000469217 0
0.00122676 0.000485947 0
0.00120525 0.000486094 0
0.00121479 0.000413153 0
0.00119547 0.000424221 0
0.00120249 0.000407448 0
0.00119925 0.00039625 0
0.00119346 0.000406114 0
0.00117479 0.000447279 0
0.00114726 0.000445259 0
0.0011571 0.000427814 0
0.00119443 0.000466611 0
0.00117447 0.000421596 0
0.00118421 0.00040752 0
0.00117409 0.000404437 0
0.00116775 0.000470073 0
0.001179 0.0004855 0
0.00115473 0.000484802 0
0.0011685 0.0003925 0
0.00117875 0.00039375 0
0.00115454 0.000400551 0
0.001148 0.00039 0
0.00115825 0.00039125 0
0.00111703 0.000423398 0
0.00113786 0.000426731 0
0.00112589 0.000443871 0
0.00113234 0.000406671 0
0.00114754 0.000413371 0
0.001106 0.000442326 0
0.00109703 0.000424261 0
0.0011275 0.0003875 0
0.00113775 0.00038875 0
0.00110211 0.000480875 0
0.00108244 0.000471951 0
0.00109312 0.000458413 0
0.00111755 0.000399116 0
0.0010944 0.000392972 0
0.00110415 0.000405876 0
0.00108839 0.000407536 0
0.00106472 0.000476905 0
0.00107274 0.000457868 0
0.00108011 0.000392415 0
0.00106885 0.000404365 0
0.00106625 0.000388708 0
0.00105286 0.000419254 0
0.00105055 0.000395469 0
0.00104215 0.000439764 0
0.00106346 0.000440629 0
0.00100945 0.000451249 0
0.00102825 0.00045614 0
0.00101189 0.000468452 0
0.00107625 0.00038125 0
0.00105575 0.00037875 0
0.001066 0.00038 0
0.00103352 0.000476905 0
0.00101803 0.00048465 0
0.00103685 0.000389398 0
0.0010245 0.00038825 0
0.00103525 0.00037625 0
0.00101092 0.000399779 0
0.00101267 0.000382619 0
0.00101382 0.00042025 0
0.00103187 0.000405286 0
0.00103359 0.000424605 0
0.000987383 0.00045447 0
0.000999411 0.000435161 0
0.0009744 0.000433145 0
0.0010045 0.0003725 0
0.00101475 0.00037375 0
0.000970845 0.000465215 0
0.000952614 0.000467664 0
0.000961768 0.000449944 0
0.00099729 0.000387704 0
0.000978901 0.00039598 0
0.000985823 0.000381492 0
0.000962289 0.000393709 0
0.000974259 0.000381279 0
0.00097375 0.00036875 0
0.000963045 0.000376631 0
0.000958 0.0005 0
0.000932 0.0005 0
0.000947542 0.00048457 0
0.000949675 0.000385245 0
0.000936214 0.000389472 0
0.000940006 0.000374906 0
0.000966411 0.000412573 0
0.000944241 0.000407079 0
0.000903569 0.000424993 0
0.000921701 0.000402409 0
0.000927439 0.000427744 0
0.000889795 0.000409067 0
0.000903071 0.00040248 0
0.000925447 0.000377721 0
0.00093275 0.00036375 0
0.000907708 0.000387127 0
0.000911303 0.000370839 0
0.000911933 0.000455145 0
0.000930678 0.000473279 0
0.000911886 0.000482603 0
0.000887724 0.000388076 0
0.000899595 0.000375116 0
0.000902 0.00036 0
0.000889241 0.00036954 0
0.000836977 0.000459472 0
0.000836223 0.000483578 0
0.000820467 0.000474142 0
0.000871227 0.000403557 0
0.000861 0.000355 0
0.000868368 0.000365714 0
0.00085484 0.00036588 0
0.000847735 0.000402845 0
0.000823121 0.000421599 0
0.000826582 0.000398147 0
0.000846943 0.00042454 0
0.000838832 0.000378613 0
0.000835569 0.000363808 0
0.000844098 0.00036291 0
0.00085075 0.00035375 0
0.000851465 0.000477164 0
0.00083025 0.00035125 0
0.000822824 0.000368659 0
0.00081446 0.000357362 0
0.000805884 0.000371794 0
0.000753471 0.000477524 0
0.000738313 0.000473927 0
0.000739102 0.000461526 0
0.00079826 0.000358588 0
0.000788607 0.000376287 0
0.000781733 0.000357987 0
0.000816783 0.000384471 0
0.000807975 0.000404095 0
0.000752138 0.000404775 0
0.000767682 0.000417043 0
0.000749617 0.000421803 0
0.000752903 0.000384008 0
0.000738293 0.000393136 0
0.000772614 0.000394048 0
0.00076863 0.000371878 0
0.000765995 0.000354121 0
0.000779 0.000345 0
0.00071811 0.000453059 0
0.000738069 0.000437967 0
0.000752085 0.000365972 0
0.000728123 0.000374583 0
0.000741845 0.000354664 0
[...]
CELL_DATA 58684
VECTORS velocity DOUBLE
63.3982 0.359789 0
68.1611 4.5624e-05 0
68.0795 9.19605e-05 0
68.176 -0.000173739 0
68.0991 0.000202812 0
68.1853 -0.00383159 0
68.1189 0.00821108 0
67.7453 -0.00838458 0
67.7162 -0.00722834 0
67.5957 -0.00835073 0
67.4968 -0.0108937 0
67.4087 -0.107461 0
67.6635 -0.0247104 0
67.3891 -0.0399345 0
67.67 -0.0585558 0
67.3113 -0.0885094 0
67.7248 -0.0923996 0
67.2512 -0.0887598 0
67.5735 -0.0525777 0
67.3504 -0.0796161 0
67.7238 -0.093883 0
67.2746 -0.198863 0
71.4248 -1.61014 0
67.7706 0.0109893 0
67.7454 0.0488079 0
67.7712 0.0246899 0
67.6861 0.0745064 0
67.711 0.0073986 0
67.6904 0.0962984 0
67.5957 0.00914861 0
67.7063 0.100503 0
67.6341 0.00177098 0
67.7011 0.120636 0
67.3585 0.0694947 0
67.1763 0.492936 0
67.4366 0.0126578 0
67.7043 0.108766 0
67.315 0.166584 0
68.1901 -0.00199276 0
68.1998 0.000885968 0
68.2196 -0.00569927 0
68.2225 -0.00412817 0
68.2353 0.00195066 0
68.2574 -0.00479771 0
68.2637 -0.00660585 0
68.2704 -0.00087464 0
68.2855 0.00360514 0
68.3065 -0.00756725 0
68.3117 -0.00325144 0
68.3299 0.00498113 0
68.3566 -0.00735071 0
68.3648 -0.00615555 0
68.3737 0.00222961 0
68.3935 0.00689066 0
68.417 -0.00685912 0
68.4237 -0.000628845 0
68.4467 0.00760078 0
68.4776 -0.00993516 0
68.4871 -0.00720865 0
68.5003 0.00137632 0
68.5254 0.00694601 0
68.5359 -0.00791459 0
68.5693 -4.20175e-05 0
68.6012 0.00636983 0
68.6083 -0.0053683 0
68.6181 -0.000764884 0
68.6385 0.00358746 0
68.663 0.0067841 0
68.6726 -0.00329 0
68.6924 0.00322638 0
68.7209 0.00670834 0
68.7288 -0.00720888 0
68.7455 -0.000540428 0
68.7696 -0.0146457 0
68.7926 0.00621889 0
68.8075 -0.00905125 0
68.8199 -0.0077604 0
68.8524 0.00613068 0
68.8631 -0.015116 0
68.915 -0.00718221 0
68.8742 -0.0101432 0
68.9143 0.0040965 0
68.9361 -0.0130252 0
68.9282 -0.0159533 0
68.9803 -0.0138294 0
68.9707 -0.0131825 0
68.9699 -0.0172749 0
68.9958 -0.0299431 0
69.0324 -0.0185416 0
69.0622 -0.0272003 0
69.0203 -0.0211823 0
69.0499 -0.038816 0
69.0688 -0.035909 0
69.0662 -0.0342636 0
69.0961 -0.0479333 0
69.1447 -0.0468196 0
69.0977 -0.0442891 0
69.1351 -0.0581868 0
69.1646 -0.0675376 0
69.1542 -0.0539489 0
69.2077 -0.063682 0
69.1763 -0.0531375 0
69.201 -0.0212072 0
69.2273 -0.066934 0
69.2574 -0.0682103 0
69.2501 -0.0733854 0
69.2453 -0.0214769 0
69.275 -0.0735559 0
69.3083 -0.0907772 0
69.3271 -0.0430996 0
69.3183 -0.0526342 0
69.291 -0.0759938 0
69.3701 -0.097667 0
69.3557 -0.0331798 0
69.4374 -0.0861496 0
69.3965 -0.0535004 0
69.4821 0.0015788 0
69.4502 -0.0923991 0
69.485 -0.107441 0
69.5699 -0.090342 0
69.6128 -0.0641719 0
69.5083 -0.0568274 0
69.588 -0.101078 0
69.6802 -0.0605837 0
69.6686 -0.109448 0
69.6199 -0.02677 0
69.7023 -0.0936918 0
69.7619 -0.0248012 0
69.7338 -0.117308 0
69.7988 -0.13346 0
69.9047 -0.0663705 0
69.8753 -0.0945024 0
69.8304 -0.0339884 0
69.9645 -0.131171 0
69.8564 -0.0332598 0
69.9112 -0.133525 0
70.0625 -0.142284 0
70.1122 -0.091797 0
70.1433 -0.115671 0
70.0509 -0.123136 0
70.1022 -0.121962 0
70.0534 -0.0604038 0
70.1882 -0.145393 0
70.2366 -0.148319 0
70.3009 -0.107536 0
70.1652 -0.0670309 0
70.2285 -0.130003 0
70.2578 -0.159096 0
70.2053 -0.0319651 0
70.3672 -0.172653 0
70.3738 -0.172954 0
70.414 -0.120216 0
70.326 -0.103031 0
70.3938 -0.149666 0
70.4166 -0.18964 0
70.3358 -0.0335582 0
70.4257 -0.207025 0
70.47 -0.2198 0
70.4724 -0.179624 0
70.4769 -0.19892 0
70.4979 -0.19565 0
70.4953 -0.240211 0
70.4402 -0.0836185 0
70.4954 -0.232086 0
70.5256 -0.256837 0
70.4662 -0.0963299 0
70.5503 -0.314864 0
70.549 -0.31132 0
70.5341 -0.21621 0
70.5148 -0.176063 0
70.5576 -0.317046 0
70.5703 -0.349816 0
70.491 -0.0871676 0
70.5766 -0.390491 0
70.5895 -0.417622 0
70.5423 -0.316926 0
70.5754 -0.216038 0
70.5906 -0.279712 0
70.6188 -0.468708 0
70.5776 -0.199002 0
70.6311 -0.47797 0
70.6348 -0.494751 0
70.6617 -0.56087 0
70.5861 -0.0123285 0
70.734 -0.593343 0
70.6189 -0.465914 0
70.7232 -0.443905 0
70.7994 -0.526658 0
70.7656 -0.667221 0
70.814 -0.687837 0
70.6987 -0.161671 0
70.8379 -0.695602 0
70.8832 -0.794734 0
70.8993 -0.775086 0
71.0699 -0.177978 0
70.9025 -0.622236 0
71.1125 -0.903785 0
71.2237 -0.697069 0
71.0907 -0.587001 0
71.1807 -0.974199 0
71.1734 -0.959589 0
71.0681 -0.16185 0
71.32 -1.07324 0
71.3807 -1.00147 0
71.7449 -0.174226 0
71.5338 -1.10311 0
71.3394 -0.752712 0
71.7637 -0.653682 0
71.8652 -0.852737 0
71.6615 -0.982918 0
71.6642 -1.18141 0
71.8147 -0.392199 0
71.9601 -1.09476 0
71.8919 -1.30814 0
72.2366 -1.26491 0
72.1339 -0.00994428 0
72.1389 -1.00053 0
72.244 -1.29556 0
72.0026 -0.292666 0
72.3406 -1.34378 0
72.5097 -0.684202 0
72.4288 -1.41096 0
72.6751 -0.334028 0
72.6639 -1.08419 0
72.6131 -1.30795 0
72.4934 -0.188719 0
72.8822 -1.32306 0
73.0644 -1.16661 0
72.8224 -1.02058 0
72.8871 -0.565224 0
73.1403 -1.32859 0
73.0319 -0.458976 0
73.188 -0.0726185 0
72.9737 -1.00941 0
73.2772 -1.23653 0
73.3982 -1.33545 0
73.2738 -0.357573 0
73.4491 -1.04067 0
73.6575 -1.09504 0
73.3374 -0.120298 0
73.7576 -1.0003 0
73.6944 -1.13841 0
73.4984 -0.847442 0
73.5258 -0.395412 0
73.6557 -0.450395 0
73.8039 -1.08206 0
73.7274 -0.000474059 0
73.883 -1.11643 0
73.9879 -1.03212 0
73.9458 -1.09406 0
73.9964 -0.256961 0
74.0503 -0.878834 0
74.2391 -0.890101 0
74.0368 0.00242982 0
74.2792 -1.03255 0
74.5052 -0.921447 0
74.239 -0.653389 0
74.149 -0.294493 0
74.4268 -1.01504 0
74.3267 -0.353846 0
74.3942 -0.027887 0
74.4993 -0.73088 0
74.6545 -0.981804 0
74.84 -0.947071 0
74.5479 -0.105812 0
75.0494 -0.70846 0
74.946 -0.904231 0
74.6639 -0.00229926 0
75.1125 -0.981448 0
75.3754 -0.922568 0
75.3468 -0.355137 0
74.7679 0.0182335 0
75.6567 -0.784382 0
75.3663 0.0814664 0
75.6589 0.163665 0
75.6863 -0.601428 0
75.5842 -0.278992 0
76.2241 -0.438336 0
75.0298 0.279058 0
76.1313 -0.601211 0
76.1327 0.0800655 0
76.594 0.003268 0
74.8977 0.0889982 0
76.8386 0.74386 0
76.7227 0.990501 0
74.3804 0.146792 0
76.9892 0.3201 0
77.1565 0.890279 0
75.3402 1.17974 0
74.9894 0.565525 0
76.176 0.824039 0
77.171 1.41706 0
74.605 0.272464 0
76.8661 2.20314 0
77.1393 1.55786 0
77.1475 1.78015 0
74.0912 1.12231 0
75.9794 2.35629 0
76.8312 2.54151 0
74.1227 0.189015 0
76.6602 2.97133 0
76.595 2.86714 0
75.6626 4.06001 0
72.4258 0.270746 0
76.4266 3.86892 0
75.039 2.7919 0
73.7257 1.21199 0
73.4018 2.28159 0
76.2288 4.18756 0
75.3943 4.53841 0
72.8491 0.45056 0
75.1886 5.13556 0
68.1281 0.00208521 0
68.1387 -0.000794208 0
68.1678 0.010077 0
68.1714 0.00833467 0
68.1902 -0.00180532 0
68.2261 0.0111885 0
68.233 0.0139403 0
68.2418 0.00682398 0
68.2651 -0.00328051 0
68.2964 0.0178672 0
68.3019 0.0105831 0
68.3259 -0.00447834 0
68.3664 0.0187008 0
68.3749 0.0181414 0
68.3854 0.00741634 0
68.4134 -0.00604811 0
68.4476 0.0224887 0
68.4548 0.013846 0
68.4852 -0.0061772 0
68.5332 0.0301316 0
68.5431 0.0266698 0
68.5998 0.0344551 0
68.5582 0.00873919 0
68.6314 0.0186963 0
68.6972 0.0264218 0
68.6511 0.015052 0
68.7237 0.0229489 0
68.7513 0.0129181 0
68.7856 0.0325624 0
68.7352 0.0229318 0
68.8215 0.0129109 0
68.8604 0.0365672 0
68.8227 0.0218003 0
68.9249 0.0405822 0
68.9352 0.0334649 0
68.9568 0.0226823 0
68.904 0.0225043 0
68.9699 0.025214 0
69.0235 0.0160454 0
68.9855 0.0191398 0
69.0768 0.0406802 0
69.0702 0.0128084 0
69.1029 0.0170671 0
69.0588 0.0233264 0
69.1167 0.0263321 0
69.1655 0.0221507 0
69.1719 0.0152137 0
69.1548 0.0259227 0
69.2013 0.0257472 0
69.2074 0.0270189 0
69.2291 0.00781026 0
69.2253 0.0106056 0
69.2495 0.015296 0
69.2763 0.0279316 0
69.2599 0.00980416 0
69.287 0.0123709 0
69.2984 0.0228749 0
69.2828 0.00493381 0
69.2664 0.0152518 0
69.3143 0.0185346 0
69.3161 0.0134431 0
69.2992 -0.00186376 0
69.3008 -0.00125442 0
69.3196 0.000722233 0
69.2681 0.0063921 0
69.3537 -0.000507109 0
69.3739 -0.00321742 0
69.3486 -0.00190971 0
69.3198 -0.00145412 0
69.3771 -0.00698641 0
69.3809 -0.00843016 0
69.362 -0.0125013 0
69.3514 -0.00547812 0
69.3953 -0.012899 0
69.4078 -0.0148124 0
69.33 -0.00109751 0
69.3848 -0.0123205 0
69.4382 -0.0102411 0
69.385 -0.00665045 0
69.4474 -0.0101213 0
69.4786 -0.0044699 0
69.4397 -0.00656818 0
69.4663 -0.00192166 0
69.4879 -0.0041621 0
69.5113 0.00617749 0
69.4789 0.00727398 0
69.5463 0.0155816 0
69.4983 0.00481257 0
69.5828 0.0201135 0
69.5177 0.00532995 0
69.5974 0.0405724 0
69.6971 0.091951 0
69.6617 0.0193171 0
69.6405 0.0550407 0
69.7469 0.110457 0
69.72 0.0779859 0
69.6408 0.014597 0
69.7743 0.110441 0
69.8218 0.145522 0
69.8064 0.0362374 0
69.8967 0.0806326 0
69.8965 0.153683 0
69.9198 0.20772 0
69.8407 0.102555 0
69.9838 0.221849 0
70.0254 0.263568 0
70.1485 0.0987467 0
70.0382 0.162909 0
70.1301 0.335218 0
70.1497 0.30351 0
70.0169 0.0874247 0
70.1821 0.350562 0
70.2558 0.391854 0
70.3297 0.165659 0
70.241 0.330679 0
70.3943 0.488497 0
70.3953 0.387657 0
70.217 0.113632 0
70.4315 0.467901 0
70.5561 0.593279 0
70.4449 0.168512 0
70.5347 0.483073 0
70.5786 0.22347 0
70.6165 0.504935 0
70.5491 0.280904 0
70.6712 0.631363 0
70.7513 0.624184 0
70.6379 0.171829 0
70.7266 0.614938 0
70.856 0.686197 0
70.7462 0.169208 0
70.6976 0.51791 0
70.8174 0.575229 0
70.9131 0.659044 0
70.7487 0.103697 0
70.9141 0.587576 0
71.0648 0.702543 0
70.994 0.570356 0
70.8509 0.181514 0
71.071 0.545594 0
70.8238 0.23592 0
70.9191 0.560517 0
71.0938 0.631787 0
71.2219 0.64171 0
71.2112 0.615514 0
70.8244 0.0208051 0
71.3257 0.631589 0
71.3289 0.59759 0
71.253 0.472972 0
71.1183 0.242104 0
71.1977 0.230343 0
71.3299 0.535546 0
70.991 0.191488 0
71.4473 0.515085 0
71.3836 0.51007 0
71.3375 0.4346 0
71.1239 0.1327 0
71.4308 0.43819 0
71.5447 0.492908 0
71.2558 0.199038 0
71.2678 0.231883 0
71.4255 0.40543 0
71.5977 0.464496 0
71.1703 0.159811 0
71.6076 0.47814 0
71.6128 0.460552 0
71.35 0.0986217 0
71.6746 0.523558 0
71.6812 0.515549 0
71.6868 0.495855 0
71.5305 0.220328 0
71.5253 0.24191 0
71.6491 0.514344 0
71.433 0.156365 0
71.7326 0.626837 0
71.7426 0.630168 0
71.7738 0.641913 0
71.586 0.0957515 0
71.8288 0.779527 0
71.8338 0.831228 0
71.8193 0.456801 0
72.0459 0.720775 0
71.8825 0.397643 0
71.879 0.846077 0
71.7955 0.225894 0
72.0169 1.08478 0
72.0181 1.08905 0
71.8335 0.203513 0
72.1486 1.08773 0
72.3038 1.33771 0
72.228 1.27399 0
72.4428 0.295808 0
72.6414 1.532 0
72.7045 1.68018 0
72.1852 0.841114 0
72.7025 1.267 0
72.3939 0.534455 0
73.0149 1.89789 0
72.7244 0.189058 0
73.0899 1.89837 0
73.1328 1.84628 0
72.4755 0.147317 0
73.0431 1.6621 0
73.6559 2.07395 0
73.8501 2.10159 0
73.3402 0.486346 0
73.9854 2.076 0
74.1055 2.26722 0
73.0512 1.20116 0
74.3229 1.40586 0
73.6405 0.479424 0
74.4349 2.25188 0
73.7471 0.17328 0
74.7335 2.10485 0
74.932 2.04897 0
73.4363 0.125238 0
74.708 1.68933 0
75.4733 1.84294 0
75.8179 1.6947 0
74.2176 0.323082 0
75.552 1.60377 0
76.0537 1.55205 0
74.9577 1.38946 0
75.9573 0.77747 0
74.4715 0.218422 0
75.7272 1.41952 0
74.6661 0.0775403 0
76.4716 1.30042 0
76.6223 0.991457 0
74.3845 0.0828827 0
76.3162 0.508208 0
76.8365 0.479089 0
77.0816 0.216346 0
75.1931 -0.0710629 0
77.1659 -0.128447 0
77.2392 -0.271108 0
75.4595 -0.267337 0
77.2118 -0.364312 0
76.537 -0.746624 0
75.4722 -0.0430319 0
75.1586 0.0701575 0
77.2556 -0.743872 0
77.1611 -1.11595 0
77.3729 -1.39098 0
75.0515 -0.01792 0
76.8989 -1.53079 0
77.2442 -2.05155 0
75.2806 -0.129545 0
76.7857 -1.49096 0
77.1404 -2.4934 0
76.2702 -1.81544 0
75.4231 -0.667499 0
77.0051 -2.71343 0
76.82 -2.96348 0
76.2538 -1.2023 0
75.6905 -2.86719 0
74.3405 -2.17924 0
76.8102 -2.88016 0
74.6365 -0.382616 0
76.4474 -3.61576 0
74.5546 5.48926 0
75.0683 5.01523 0
71.3422 1.38135 0
74.4897 5.38918 0
72.896 4.93767 0
73.824 5.86338 0
71.9085 0.549297 0
73.1404 5.93961 0
72.333 5.8061 0
70.8218 0.695317 0
72.2691 6.19557 0
76.3617 -3.82719 0
74.8439 -0.240793 0
76.1354 -4.04994 0
75.3932 -4.23858 0
74.9682 -3.70664 0
74.283 -0.234414 0
75.3711 -4.69034 0
71.4837 5.61336 0
74.6506 -5.43884 0
74.0501 -1.17265 0
74.4495 -5.24488 0
73.6586 -5.86608 0
69.8321 1.64513 0
73.3912 -5.66804 0
74.7605 -3.44907 0
73.9199 -5.20966 0
72.7096 -3.79883 0
72.3924 -0.66441 0
73.283 -5.21031 0
72.6562 -5.37664 0
70.9675 5.87561 0
72.6835 -5.4986 0
73.1282 -0.357617 0
71.9414 -5.59128 0
71.4016 -6.05982 0
71.8364 -0.41796 0
70.5971 -6.05963 0
71.1846 -4.51637 0
69.9656 -0.459232 0
69.8618 -6.09407 0
70.1664 -3.39933 0
71.5551 -2.82451 0
70.4386 -5.29886 0
69.5503 -5.46361 0
71.8909 3.17998 0
69.1476 0.353969 0
71.5269 2.1366 0
70.471 -0.0282199 0
69.122 -5.82766 0
70.7486 5.51541 0
68.9694 0.256018 0
70.2817 4.67574 0
68.497 -5.73699 0
70.0743 -1.21696 0
68.0244 -4.07251 0
70.1266 6.26595 0
68.1329 1.3479 0
70.0976 6.15444 0
68.5821 5.1303 0
68.3412 0.273601 0
69.0765 5.38645 0
68.4367 -4.33499 0
69.6859 -0.350809 0
67.9014 -5.83254 0
67.963 -5.61739 0
69.3099 5.80893 0
67.9517 5.53485 0
67.9207 0.0222688 0
68.6869 5.73907 0
67.3718 3.44462 0
67.8691 1.52173 0
67.2269 -5.74313 0
68.1266 -0.708525 0
67.4976 -5.63777 0
66.9704 5.76931 0
66.8008 -5.26091 0
67.6052 -0.660705 0
67.2807 -2.1606 0
66.0378 -4.97613 0
68.1813 -2.69078 0
65.8917 -4.78261 0
67.4165 -0.178925 0
65.2704 -4.57466 0
67.092 1.8923 0
67.5429 0.288724 0
66.7071 4.856 0
67.3719 0.0796027 0
66.4767 5.684 0
66.3851 5.33601 0
67.2805 0.118877 0
65.8733 4.6521 0
67.3185 0.085394 0
66.2382 -4.28053 0
67.404 -0.341494 0
67.2007 4.15499 0
67.3195 0.145503 0
65.6762 4.37419 0
65.2205 -4.57239 0
67.4935 -0.14323 0
64.0648 -3.83387 0
67.4836 -0.111054 0
64.6154 -3.81878 0
66.7889 1.66333 0
67.7504 0.104949 0
66.7982 -3.4042 0
67.7611 -0.0980136 0
64.2016 -3.58752 0
65.2408 3.95074 0
65.3717 -2.72775 0
67.6777 -0.115949 0
64.4904 -3.04208 0
66.2543 2.07963 0
64.7193 1.37731 0
64.9297 3.41194 0
66.892 -0.345943 0
64.3642 -3.37474 0
67.5185 0.138675 0
64.7468 4.602 0
66.2722 -1.41709 0
67.7621 -0.0756307 0
64.1947 -3.06692 0
64.6694 4.165 0
67.3087 0.185123 0
64.6817 3.26401 0
64.4844 3.21085 0
67.4622 0.143695 0
63.9726 2.89754 0
63.5565 -2.68099 0
67.571 -0.109148 0
63.2938 -2.70925 0
65.4261 -1.14488 0
67.6429 -0.101527 0
63.0342 -1.81274 0
63.8776 3.61646 0
67.1738 0.165812 0
65.0484 2.27345 0
63.45 -1.5788 0
67.3131 -0.0766505 0
62.9337 -1.48026 0
63.0549 2.66506 0
67.2942 0.0714001 0
63.3608 2.53486 0
63.6456 2.05064 0
67.7349 0.0141972 0
63.0246 2.21799 0
63.9926 -0.871663 0
67.106 -0.086695 0
63.3658 -0.792263 0
62.4252 -0.452447 0
66.1517 -0.443898 0
62.6187 -0.362564 0
65.8025 0.69267 0
67.4663 0.0612991 0
64.7841 1.68435 0
62.9589 1.77955 0
67.1319 0.0365031 0
62.5108 1.21182 0
66.658 -0.0405967 0
67.6758 -0.0869043 0
62.4985 -0.0168245 0
62.8883 0.0992921 0
67.494 -0.0109308 0
64.841 0.287631 0
63.1823 0.490677 0
67.5815 -0.0259582 0
65.3588 -3.73202 0
67.5296 -0.0825544 0
67.7026 0.128961 0
65.9712 4.79209 0
66.4038 -5.22544 0
68.805 -0.636636 0
67.7806 0.641792 0
68.4283 6.02354 0
67.489 0.119753 0
63.5277 3.46466 0
63.1492 -1.81103 0
67.6639 -0.132147 0
67.4252 -0.109064 0
65.8017 -2.28179 0
67.3034 0.203182 0
67.6732 0.100193 0
67.4498 0.0182106 0
62.9155 1.57542 0
67.3172 0.29056 0
66.9881 0.932957 0
67.107 -0.794874 0
67.6393 -0.431278 0
71.8433 -0.932534 0
70.9954 -5.95959 0
72.5738 5.86378 0
71.6231 0.322557 0
66.6124 0.985815 0
66.9564 5.52899 0
66.1555 -4.72279 0
67.0781 -1.41833 0
65.871 -0.848246 0
63.8233 -0.00293789 0
64.7486 4.09398 0
66.756 1.15375 0
66.6726 -0.989014 0
63.6292 -3.08079 0
75.9341 -4.39973 0
74.0077 -0.569462 0
73.6806 0.611422 0
76.5307 3.55768 0
67.3013 -0.17457 0
67.7455 -0.0367254 0
67.7019 0.0893263 0
67.2642 0.453532 0
69.6992 0.481323 0
69.3075 2.8457 0
68.1871 -1.29514 0
70.5853 -1.23805 0
68.4601 3.37401 0
70.5348 5.91418 0
69.5475 -6.0102 0
69.1594 -1.27777 0
72.5547 1.21205 0
73.2065 3.79679 0
72.1293 -2.11625 0
73.2024 -0.0211327 0
75.297 -0.256669 0
77.3698 -1.58093 0
76.6739 -0.0414497 0
74.6804 0.0324847 0
74.6626 -0.00529607 0
76.6543 0.939498 0
75.3994 -0.814745 0
74.7194 0.0237535 0
67.2044 -0.851622 0
67.2638 -0.268551 0
67.0804 0.69299 0
67.2962 0.585913 0
67.0957 0.610251 0
67.6757 0.121875 0
67.7581 -0.0999078 0
67.1644 -0.415587 0
74.6413 0.768246 0
75.5592 1.50716 0
74.9312 -1.06439 0
74.9932 -0.157156 0
64.9417 -0.57546 0
67.4944 -0.0330307 0
66.7468 -0.132855 0
67.4743 -0.0794002 0
67.6279 0.13811 0
67.0883 0.328444 0
75.0628 1.93525 0
73.989 0.276195 0
74.1846 0.00598411 0
74.2536 -0.991384 0
68.5394 -0.0177263 0
67.9888 -1.82101 0
68.7863 1.2343 0
67.9136 0.289166 0
66.0035 2.73118 0
65.3002 5.0852 0
65.2417 -4.14219 0
66.463 -1.97817 0
66.9703 -1.25098 0
66.1821 -1.34798 0
65.9668 3.16677 0
66.6563 1.43033 0
74.7924 0.0102935 0
74.8545 0.0906952 0
75.1493 -0.0485099 0
76.1373 0.224836 0
67.0238 -3.5421 0
67.7885 -3.4731 0
67.6478 3.15866 0
67.8801 5.98187 0
66.7484 -2.5387 0
67.5954 -1.45965 0
67.4501 2.0862 0
67.246 0.980452 0
73.5611 2.17855 0
73.0631 0.229227 0
73.5708 -0.00497823 0
73.5575 -1.1739 0
66.3945 0.595858 0
67.6365 0.0408447 0
74.2645 -0.0730384 0
74.8297 -0.409996 0
75.0696 0.47178 0
74.1744 0.0788196 0
67.221 -0.532554 0
67.088 -0.661404 0
67.2105 1.11014 0
67.2837 0.286828 0
67.707 -0.098519 0
67.3777 -0.135761 0
67.5667 0.0606277 0
67.7064 0.118374 0
63.2716 1.31404 0
65.8564 1.03922 0
72.7027 -2.36322 0
74.8705 -5.03242 0
75.6875 4.51312 0
72.605 1.69078 0
65.5352 -1.3704 0
63.7042 -1.82506 0
72.1313 0.193243 0
72.105 1.16081 0
71.4099 0.0618942 0
71.8098 0.800064 0
72.9852 -1.25368 0
72.6863 -0.168476 0
72.0073 -1.22194 0
71.9154 -0.0134491 0
73.75 -0.216392 0
73.8668 -0.610191 0
73.6173 0.706154 0
73.3308 0.00672235 0
67.585 0.105245 0
67.0277 0.158723 0
65.4768 0.398462 0
63.4733 0.701672 0
67.296 -0.0140741 0
67.6181 -0.0878107 0
66.5871 0.207649 0
66.4286 -0.315013 0
76.9025 -2.78669 0
74.8757 -1.58269 0
75.5786 1.77609 0
77.0993 1.00908 0
67.5744 -0.0151911 0
67.4373 -0.0668515 0
67.7213 0.0228232 0
67.3685 0.0888401 0
73.1055 -0.232333 0
73.1804 -0.63868 0
72.8011 0.566242 0
72.2977 0.144908 0
71.2989 0.152487 0
71.5051 0.414464 0
71.4138 -1.14066 0
71.3042 -0.25676 0
67.2176 -0.420227 0
67.2393 -1.29662 0
67.0697 1.01574 0
67.0892 0.76122 0
67.0093 1.89092 0
66.3599 1.16015 0
66.7623 -1.10581 0
66.7858 -1.70463 0
75.8089 -0.582396 0
76.6388 0.472227 0
75.7502 -0.638232 0
75.753 0.375503 0
66.7904 -0.460908 0
66.7984 -0.614868 0
66.9716 0.438328 0
66.321 0.785868 0
71.5092 0.510794 0
71.1169 0.222175 0
70.8531 -0.186672 0
71.0201 -0.843729 0
71.2127 3.05248 0
72.6214 5.19597 0
71.8269 -6.04548 0
71.9881 -2.43777 0
64.0894 -2.19446 0
65.8206 -2.21508 0
70.9038 -2.18251 0
71.5457 -0.826858 0
70.2632 0.350074 0
72.7913 2.34497 0
63.7669 3.30439 0
65.4309 1.88247 0
72.2743 -0.072283 0
72.574 -0.792763 0
71.976 0.419112 0
71.9059 0.109805 0
74.3392 -0.322113 0
74.1456 -1.2884 0
74.5206 1.63679 0
73.8466 0.224692 0
69.728 0.990774 0
68.3828 0.238707 0
69.1542 -0.238523 0
69.5575 -2.13418 0
74.921 0.623072 0
75.1323 1.65054 0
74.6695 -0.927741 0
75.0247 -0.158744 0
68.7771 -2.54272 0
69.7107 -1.23082 0
69.1668 1.86961 0
71.0253 4.27491 0
71.1564 0.532354 0
70.9262 0.113784 0
70.6888 -0.181986 0
70.6689 -0.547326 0
71.4866 -0.325164 0
71.7302 -0.00804425 0
71.5429 0.0943013 0
71.4868 0.353579 0
67.5392 0.309078 0
67.4187 0.827846 0
67.5062 -0.694953 0
67.9616 -0.213026 0
68.4092 1.91676 0
67.4655 1.26429 0
66.9541 -1.77134 0
66.6009 -1.74583 0
75.3485 -0.499602 0
75.1824 -0.27493 0
74.8853 0.296971 0
75.3612 0.467619 0
67.263 2.58656 0
67.687 1.69854 0
67.2828 -0.489033 0
67.2818 -0.172615 0
67.3027 0.153718 0
67.4128 0.564085 0
65.5432 -0.472334 0
66.5313 -0.648398 0
76.5277 -3.3907 0
74.915 -1.79139 0
74.436 2.93008 0
76.8167 2.93804 0
67.229 -0.202693 0
67.7165 -0.0988754 0
67.6501 0.139098 0
67.2902 0.203391 0
67.4124 0.0248939 0
67.3301 0.24455 0
67.3358 -0.151979 0
67.3223 -0.00774889 0
64.5134 -0.0713777 0
62.4876 0.249337 0
71.2901 2.36433 0
74.4947 2.36215 0
73.4754 -2.02061 0
73.6405 -3.87606 0
66.3186 1.33585 0
66.1394 0.70659 0
67.7522 -0.0069109 0
67.0785 0.031157 0
67.6313 4.73997 0
66.3064 2.74737 0
67.317 -2.79921 0
66.4439 -5.43572 0
66.5443 0.457967 0
67.3099 0.134564 0
73.6167 0.958109 0
73.8996 2.21109 0
73.8004 -1.05813 0
73.7283 -0.199872 0
70.8598 -0.22165 0
71.1465 -0.140783 0
71.2674 0.0683399 0
71.3492 0.466767 0
76.6038 0.00131402 0
76.1101 1.06341 0
76.2629 -0.623133 0
77.3056 -0.971538 0