# vtk DataFile Version 3.0
Unstructured Grid for Triangles
ASCII
DATASET UNSTRUCTURED_GRID
POINTS 29612 DOUBLE
-0.000272397 1.23686e-05 0
-0.000295789 9.5838e-06 0
-0.000277865 -3.1235e-06 0
0.002024 0.0005 0
0.00203975 0.00049875 0
0.00205 0.0005 0
0.00203975 -0.00049875 0
0.002024 -0.0005 0
0.00205 -0.0005 0
0.0020295 0.0004975 0
0.0020295 -0.0004975 0
0.00201925 0.00049625 0
0.00201925 -0.00049625 0
-0.000529747 -0.000479887 0
-0.00055 -0.0005 0
-0.000524 -0.0005 0
-0.000505983 -0.000484325 0
-0.000498 -0.0005 0
-0.000472 -0.0005 0
-0.000483864 -0.000487761 0
-0.000446 -0.0005 0
-0.000459 -0.000484239 0
-0.000429453 -0.000424878 0
-0.000447486 -0.000420717 0
-0.000441829 -0.000436609 0
-0.000512578 -0.000462101 0
-0.000493078 -0.000453594 0
-0.00050706 -0.000439006 0
-0.000419243 -0.000477545 0
-0.000440307 -0.000471837 0
-0.00043691 -0.000486724 0
-0.000516129 -0.000420948 0
-0.000495355 -0.000415432 0
-0.000511646 -0.00040128 0
-0.000394697 -0.000481197 0
-0.000406302 -0.000455143 0
-0.000537257 -0.000388197 0
-0.000531099 -0.000407297 0
-0.000523982 -0.000388328 0
-0.000370063 -0.000472956 0
-0.000368 -0.0005 0
-0.00035308 -0.000485302 0
-0.0005072 -0.00037867 0
-0.000485506 -0.000383975 0
-0.000490949 -0.000359622 0
-0.000337127 -0.000484331 0
-0.000316 -0.0005 0
-0.000326495 -0.00047415 0
-0.00055 -0.00035 0
-0.000531201 -0.000370361 0
-0.000528367 -0.000346817 0
-0.000363898 -0.000448809 0
-0.000383315 -0.000460336 0
-3.26269e-05 -0.000415503 0
-5.99662e-05 -0.000409556 0
-5.46944e-05 -0.000429488 0
-0.000529747 0.000479887 0
-0.00055 0.0005 0
-0.00055 0.000475 0
-0.00055 0.00045 0
-0.000534834 0.000429171 0
-0.000526943 0.000442611 0
-0.000534026 0.000460176 0
-0.000531099 0.000407297 0
-0.000511672 0.000401178 0
-0.000516129 0.000420948 0
-0.000524 0.0005 0
-0.000505983 0.000484325 0
-0.000531201 0.000370361 0
-0.0005072 0.00037867 0
-0.000523982 0.000388328 0
-0.00048341 0.000469132 0
-0.000483679 0.000487539 0
-0.000528367 0.000346817 0
-0.00055 0.000325 0
-0.000525657 0.000328474 0
-0.000498 0.0005 0
-0.000530382 0.0003125 0
-0.000419243 0.000477545 0
-0.000440015 0.00047335 0
-0.000425917 0.000463678 0
-0.000435138 0.000262661 0
-0.000414982 0.000274462 0
-0.000435654 0.000285217 0
-0.000459 0.000484239 0
-0.000436852 0.000487027 0
-0.000446 0.0005 0
-0.000533308 0.000292503 0
-0.00055 0.000275 0
-0.000523377 0.000276953 0
-0.000425282 0.000446352 0
-0.000409368 0.000435728 0
-0.000406302 0.000455143 0
0.002009 0.000495 0
0.001998 0.0005 0
0.00199875 0.00049375 0
0.0019885 0.0004925 0
0.001972 0.0005 0
0.00197825 0.00049125 0
0.001968 0.00049 0
0.00195775 0.00048875 0
0.001946 0.0005 0
0.0019475 0.0004875 0
0.00193725 0.00048625 0
0.00192 0.0005 0
0.001927 0.000485 0
0.00191675 0.00048375 0
0.0019065 0.0004825 0
0.001894 0.0005 0
0.00189625 0.00048125 0
0.001886 0.00048 0
0.001868 0.0005 0
0.00187575 0.00047875 0
0.0018655 0.0004775 0
0.00185515 0.00048575 0
0.001842 0.0005 0
0.001845 0.000475 0
0.00185525 0.00047625 0
0.00182564 0.0004829 0
0.001816 0.0005 0
0.0018245 0.0004725 0
0.00183475 0.00047375 0
0.00181425 0.00047125 0
0.00180295 0.000482657 0
0.00179 0.0005 0
0.00179375 0.00046875 0
0.001804 0.00047 0
0.00178168 0.000480619 0
0.001764 0.0005 0
0.00177325 0.00046625 0
0.0017835 0.0004675 0
0.00176428 0.000476631 0
0.001763 0.000465 0
0.001738 0.0005 0
0.001751 0.000484164 0
0.00175275 0.00046375 0
0.00174025 0.000475632 0
0.001712 0.0005 0
0.00172615 0.000478449 0
0.001722 0.00046 0
0.00173225 0.00046125 0
0.0017015 0.0004575 0
0.00171243 0.00047381 0
0.00169554 0.000479999 0
0.001686 0.0005 0
0.00167507 0.000479751 0
0.00168498 0.000464861 0
0.00166 0.0005 0
0.0016558 0.000471459 0
0.00167135 0.000462887 0
0.001681 0.000455 0
0.0016605 0.0004525 0
0.00167075 0.00045375 0
0.00164059 0.000461599 0
0.0016394 0.000479551 0
0.00162881 0.00046615 0
0.00162975 0.00044875 0
0.00165025 0.00045125 0
0.00164 0.00045 0
0.00161754 0.000458641 0
0.00161722 0.000478101 0
0.00159956 0.000458294 0
0.00160925 0.00044625 0
0.0016195 0.0004475 0
0.00157667 0.000460322 0
0.00158875 0.00044375 0
0.00159194 0.000480155 0
0.001599 0.000445 0
0.0015785 0.0004425 0
0.00155808 0.000456757 0
0.00155647 0.000476701 0
0.00154059 0.000466642 0
0.00153756 0.000450083 0
0.00154839 0.000450446 0
0.00156825 0.00044125 0
0.00151954 0.000480508 0
0.00154052 0.00048477 0
0.00153 0.0005 0
0.00154775 0.00043875 0
0.00152142 0.000456625 0
0.00152821 0.000445753 0
0.0015375 0.0004375 0
0.001504 0.0005 0
0.00149644 0.000485168 0
0.00151787 0.000443178 0
0.00152725 0.00043625 0
0.00150675 0.00043375 0
0.001517 0.000435 0
0.00148119 0.000450887 0
0.00148072 0.000475756 0
0.00146584 0.000463516 0
0.00150008 0.00046396 0
0.00149351 0.00044543 0
0.0015061 0.000446252 0
0.001476 0.00043 0
0.00148625 0.00043125 0
0.00146492 0.000482975 0
0.00144888 0.000473562 0
0.00146676 0.000444259 0
0.00145255 0.000453656 0
0.00145652 0.000438669 0
0.00141401 0.000479821 0
0.001426 0.0005 0
0.0014 0.0005 0
0.00144374 0.000438862 0
0.0014555 0.0004275 0
0.001435 0.000425 0
0.00144525 0.00042625 0
0.00142746 0.000438121 0
0.00141288 0.000443191 0
0.00141707 0.000432778 0
0.0013921 0.000438992 0
0.00140355 0.00045932 0
0.00138302 0.00045922 0
0.00142912 0.000458869 0
0.00140592 0.000430037 0
0.0014145 0.0004225 0
0.00136458 0.00045869 0
0.00137106 0.00044063 0
0.001394 0.00042 0
0.00138259 0.000428915 0
0.00137484 0.000477094 0
0.00139166 0.000478902 0
0.0013586 0.000478984 0
0.00133449 0.000478649 0
0.00134717 0.000461848 0
0.00137256 0.000425134 0
0.00135323 0.000424541 0
0.00136325 0.00041625 0
0.00136122 0.00042876 0
0.00131206 0.000447284 0
0.00133168 0.000456738 0
0.00131773 0.000465243 0
0.00134756 0.000440343 0
0.00132747 0.000436463 0
0.00133483 0.000426786 0
0.00131081 0.00041867 0
0.00132382 0.000422815 0
0.00131507 0.00043122 0
0.00131059 0.000480123 0
0.0013325 0.0004125 0
0.0012915 0.0004075 0
0.0012982 0.000418199 0
0.00128915 0.000426216 0
0.00126366 0.000447574 0
0.00127331 0.000430908 0
0.00128781 0.000444872 0
0.00125336 0.000428376 0
0.00130218 0.000431077 0
0.00127894 0.000416344 0
0.00124774 0.000469608 0
0.00127668 0.000464148 0
0.00126591 0.00048331 0
0.00126722 0.000418415 0
0.00125768 0.000411931 0
0.00124326 0.000413546 0
0.0012505 0.0004025 0
0.00122408 0.000450118 0
0.00120276 0.000447432 0
0.0012139 0.000432235 0
0.00124336 0.000444132 0
0.00123056 0.000427595 0
0.00122977 0.000409049 0
0.0012185 0.000469217 0
0.00122676 0.000485947 0
0.00120525 0.000486094 0
0.00121479 0.000413153 0
0.00119547 0.000424221 0
0.00120249 0.000407448 0
0.00119925 0.00039625 0
0.00119346 0.000406114 0
0.00117479 0.000447279 0
0.00114726 0.000445259 0
0.0011571 0.000427814 0
0.00119443 0.000466611 0
0.00117447 0.000421596 0
0.00118421 0.00040752 0
0.00117409 0.000404437 0
0.00116775 0.000470073 0
0.001179 0.0004855 0
0.00115473 0.000484802 0
0.0011685 0.0003925 0
0.00117875 0.00039375 0
0.00115454 0.000400551 0
0.001148 0.00039 0
0.00115825 0.00039125 0
0.00111703 0.000423398 0
0.00113786 0.000426731 0
0.00112589 0.000443871 0
0.00113234 0.000406671 0
0.00114754 0.000413371 0
0.001106 0.000442326 0
0.00109703 0.000424261 0
0.0011275 0.0003875 0
0.00113775 0.00038875 0
0.00110211 0.000480875 0
0.00108244 0.000471951 0
0.00109312 0.000458413 0
0.00111755 0.000399116 0
0.0010944 0.000392972 0
0.00110415 0.000405876 0
0.00108839 0.000407536 0
0.00106472 0.000476905 0
0.00107274 0.000457868 0
0.00108011 0.000392415 0
0.00106885 0.000404365 0
0.00106625 0.000388708 0
0.00105286 0.000419254 0
0.00105055 0.000395469 0
0.00104215 0.000439764 0
0.00106346 0.000440629 0
0.00100945 0.000451249 0
0.00102825 0.00045614 0
0.00101189 0.000468452 0
0.00107625 0.00038125 0
0.00105575 0.00037875 0
0.001066 0.00038 0
0.00103352 0.000476905 0
0.00101803 0.00048465 0
0.00103685 0.000389398 0
0.0010245 0.00038825 0
0.00103525 0.00037625 0
0.00101092 0.000399779 0
0.00101267 0.000382619 0
0.00101382 0.00042025 0
0.00103187 0.000405286 0
0.00103359 0.000424605 0
0.000987383 0.00045447 0
0.000999411 0.000435161 0
0.0009744 0.000433145 0
0.0010045 0.0003725 0
0.00101475 0.00037375 0
0.000970845 0.000465215 0
0.000952614 0.000467664 0
0.000961768 0.000449944 0
0.00099729 0.000387704 0
0.000978901 0.00039598 0
0.000985823 0.000381492 0
0.000962289 0.000393709 0
0.000974259 0.000381279 0
0.00097375 0.00036875 0
0.000963045 0.000376631 0
0.000958 0.0005 0
0.000932 0.0005 0
0.000947542 0.00048457 0
0.000949675 0.000385245 0
0.000936214 0.000389472 0
0.000940006 0.000374906 0
0.000966411 0.000412573 0
0.000944241 0.000407079 0
0.000903569 0.000424993 0
0.000921701 0.000402409 0
0.000927439 0.000427744 0
0.000889795 0.000409067 0
0.000903071 0.00040248 0
0.000925447 0.000377721 0
0.00093275 0.00036375 0
0.000907708 0.000387127 0
0.000911303 0.000370839 0
0.000911933 0.000455145 0
0.000930678 0.000473279 0
0.000911886 0.000482603 0
0.000887724 0.000388076 0
0.000899595 0.000375116 0
0.000902 0.00036 0
0.000889241 0.00036954 0
0.000836977 0.000459472 0
0.000836223 0.000483578 0
0.000820467 0.000474142 0
0.000871227 0.000403557 0
0.000861 0.000355 0
0.000868368 0.000365714 0
0.00085484 0.00036588 0
0.000847735 0.000402845 0
0.000823121 0.000421599 0
0.000826582 0.000398147 0
0.000846943 0.00042454 0
0.000838832 0.000378613 0
0.000835569 0.000363808 0
0.000844098 0.00036291 0
0.00085075 0.00035375 0
0.000851465 0.000477164 0
0.00083025 0.00035125 0
0.000822824 0.000368659 0
0.00081446 0.000357362 0
0.000805884 0.000371794 0
0.000753471 0.000477524 0
0.000738313 0.000473927 0
0.000739102 0.000461526 0
0.00079826 0.000358588 0
0.000788607 0.000376287 0
0.000781733 0.000357987 0
0.000816783 0.000384471 0
0.000807975 0.000404095 0
0.000752138 0.000404775 0
0.000767682 0.000417043 0
0.000749617 0.000421803 0
0.000752903 0.000384008 0
0.000738293 0.000393136 0
0.000772614 0.000394048 0
0.00076863 0.000371878 0
0.000765995 0.000354121 0
0.000779 0.000345 0
0.00071811 0.000453059 0
0.000738069 0.000437967 0
0.000752085 0.000365972 0
0.000728123 0.000374583 0
0.000741845 0.000354664 0
[...]
CELL_DATA 58684
VECTORS velocity DOUBLE
67.2215 0.129348 0
67.7882 -5.30758e-09 0
67.7882 3.19737e-11 0
67.7882 -7.55444e-08 0
67.7882 8.88695e-08 0
67.7882 1.76316e-07 0
67.7882 -2.00289e-07 0
67.6579 -0.0143373 0
67.6228 -0.0479009 0
67.7239 -0.0211374 0
67.8522 -0.0255031 0
67.8173 -0.32431 0
67.5813 -0.404572 0
67.933 -0.0792806 0
67.5101 -0.670899 0
67.7711 -0.0309184 0
67.675 -0.0697209 0
67.6724 -0.0869101 0
67.7312 -1.41813 0
67.7334 -0.115832 0
67.7757 -0.150002 0
67.6725 -0.173975 0
70.4307 -0.753111 0
67.7475 -0.0118505 0
67.6545 0.0457886 0
67.7523 0.00985288 0
67.6229 0.287253 0
67.6221 0.0472139 0
67.6894 0.555858 0
67.7322 0.175922 0
67.7922 0.449511 0
67.6297 0.110555 0
67.4044 0.478857 0
67.8425 0.0692537 0
67.2027 1.51028 0
67.8488 0.0810426 0
67.9101 1.04908 0
67.7713 0.0561501 0
67.7882 2.60988e-07 0
67.7882 -1.88756e-07 0
67.7882 2.41332e-07 0
67.7882 1.19569e-06 0
67.7882 -9.7783e-07 0
67.7882 -1.41067e-07 0
67.7882 3.52447e-06 0
67.7882 3.77437e-06 0
67.7882 -4.03566e-06 0
67.7881 6.40093e-06 0
67.7881 1.25163e-05 0
67.7881 -1.71406e-05 0
67.788 7.0499e-06 0
67.788 4.33799e-05 0
67.7879 3.98605e-05 0
67.7878 -5.26654e-05 0
67.7875 6.56511e-05 0
67.7874 7.39089e-05 0
67.7872 -0.000190658 0
67.7865 7.28762e-05 0
67.7861 0.000244608 0
67.7856 0.000116851 0
67.7847 -0.000434747 0
67.7838 0.00103887 0
67.7812 0.000979137 0
67.7767 -0.000897523 0
67.7768 0.0014492 0
67.7753 0.00222119 0
67.7718 -0.000559871 0
67.7613 -0.00286602 0
67.7597 0.00355572 0
67.753 -0.00196909 0
67.7323 -0.00805671 0
67.7289 0.00616166 0
67.7157 -0.000424833 0
67.6886 0.0101087 0
67.6483 -0.0146419 0
67.6292 0.00962747 0
67.5891 0.00254903 0
67.4986 -0.0311523 0
67.4864 0.0141462 0
67.2549 -0.0381131 0
67.4454 0.00338931 0
67.1824 -0.039581 0
67.0061 0.0428942 0
67.1552 -0.00153797 0
66.5468 0.0288406 0
66.7652 -0.026612 0
66.9012 -0.0516345 0
66.6696 -0.00237695 0
65.9162 -0.0754905 0
65.7252 -0.143815 0
66.2515 -0.0845786 0
65.935 -0.0577296 0
65.2688 -0.0687361 0
65.3706 -0.0702415 0
65.2857 -0.138674 0
64.546 -0.287347 0
64.6521 -0.0530817 0
64.6943 -0.181015 0
64.2638 -0.192713 0
63.9903 -0.112041 0
63.7408 -0.102082 0
64.0633 -0.21283 0
63.6985 -0.0428201 0
63.7909 -0.12927 0
63.7916 -0.0451679 0
63.7509 -0.0574156 0
63.9707 -0.0195609 0
63.8223 0.00797303 0
63.9503 0.0293144 0
64.7908 0.264517 0
64.5333 0.157249 0
64.195 0.126279 0
64.7984 0.345822 0
65.2917 0.195777 0
65.6305 0.434509 0
65.6436 0.328796 0
67.0865 0.190061 0
65.669 0.619255 0
66.081 0.557785 0
66.8837 0.616499 0
67.5855 0.348483 0
67.0274 0.232298 0
66.9311 0.623545 0
67.9843 0.271529 0
67.5756 0.450656 0
67.8909 0.143308 0
67.6544 0.444598 0
68.3979 0.12909 0
67.8712 0.378838 0
68.0881 0.258062 0
68.5633 0.0840085 0
68.3471 0.149625 0
68.5396 0.0684862 0
68.4584 0.104191 0
68.5673 0.0471143 0
68.3314 0.134775 0
68.5003 0.0434318 0
68.5501 -0.0168448 0
68.5434 -0.0319931 0
68.5448 0.019072 0
68.4856 -0.00256384 0
68.5631 -0.0211727 0
68.4566 -0.0522909 0
68.4765 -0.0678485 0
68.3512 -0.067976 0
68.4579 -0.0406752 0
68.4259 -0.0605061 0
68.404 -0.0673154 0
68.3665 -0.0341254 0
68.3205 -0.0952215 0
68.3227 -0.0925056 0
68.1536 -0.0535185 0
68.2902 -0.0174814 0
68.2558 -0.0845618 0
68.2138 -0.0735395 0
68.1673 -0.0180995 0
68.2312 -0.0852371 0
68.1618 -0.0834715 0
68.0381 -0.045183 0
68.0751 -0.0697321 0
67.9645 -0.0478086 0
68.0723 -0.0686368 0
67.9159 -0.0268896 0
68.0486 -0.0770717 0
67.9317 -0.0844083 0
67.8553 -0.0215829 0
67.8511 -0.0769527 0
67.8031 -0.0666337 0
67.802 -0.0517808 0
67.7226 -0.0236873 0
67.8738 -0.0894192 0
67.8419 -0.0885782 0
67.7308 -0.0129334 0
67.7613 -0.0924367 0
67.7066 -0.0854282 0
67.738 -0.055064 0
67.6876 -0.0414762 0
67.6677 -0.0309462 0
67.7192 -0.108265 0
67.6264 -0.0286087 0
67.6598 -0.107101 0
67.6325 -0.10413 0
67.6244 -0.128741 0
67.6135 -0.00776894 0
67.5777 -0.131142 0
67.6152 -0.090021 0
67.5675 -0.0834044 0
67.5443 -0.1058 0
67.5581 -0.169871 0
67.5439 -0.168498 0
67.5812 -0.0281501 0
67.5268 -0.173578 0
67.5103 -0.232204 0
67.5241 -0.197239 0
67.5368 -0.0326765 0
67.5241 -0.138758 0
67.4648 -0.308259 0
67.5203 -0.166883 0
67.5141 -0.133574 0
67.4666 -0.334908 0
67.4525 -0.337288 0
67.5431 -0.0279791 0
67.4375 -0.427347 0
67.4482 -0.374341 0
67.5905 -0.0483311 0
67.4529 -0.459223 0
67.4965 -0.216454 0
67.5413 -0.215181 0
67.5108 -0.354394 0
67.496 -0.369022 0
67.421 -0.576841 0
67.5798 -0.12507 0
67.4624 -0.539087 0
67.443 -0.691451 0
67.4705 -0.719335 0
67.6664 -0.00822026 0
67.5446 -0.512811 0
67.4559 -0.781849 0
67.619 -0.109918 0
67.4732 -0.842213 0
67.6271 -0.37454 0
67.5036 -0.895254 0
67.7445 -0.207748 0
67.5584 -0.750629 0
67.5229 -0.9407 0
67.7496 -0.101764 0
67.58 -0.961778 0
67.6727 -0.962719 0
67.6809 -0.747112 0
67.7557 -0.416513 0
67.6618 -1.11464 0
67.8532 -0.387377 0
68.1141 -0.0652851 0
67.6676 -0.858675 0
67.7072 -1.11253 0
67.7851 -1.18266 0
68.0334 -0.377616 0
67.9 -1.04602 0
67.9752 -1.17332 0
68.2544 -0.124125 0
68.1187 -1.18713 0
68.0138 -1.27871 0
68.0362 -0.966735 0
68.312 -0.476626 0
68.3497 -0.600483 0
68.1577 -1.33483 0
68.9288 0.0196281 0
68.2687 -1.41519 0
68.4315 -1.37954 0
68.372 -1.436 0
69.3474 -0.41885 0
68.7478 -1.34122 0
69.0217 -1.38126 0
70.0099 0.0469751 0
69.1367 -1.60572 0
69.8148 -1.59476 0
69.2777 -1.08144 0
69.6667 -0.551366 0
69.5661 -1.65534 0
69.938 -0.656126 0
71.8766 -0.0845526 0
69.8956 -1.37728 0
70.213 -1.69307 0
70.7207 -1.65138 0
71.9139 -0.27297 0
71.5505 -1.54673 0
71.0056 -1.68996 0
73.3024 -0.193885 0
71.5132 -1.90837 0
72.1219 -2.02533 0
72.6225 -1.11177 0
75.0916 0.0761879 0
72.81 -2.09548 0
74.1759 -0.583852 0
74.4164 -0.781983 0
73.0863 -1.96363 0
73.1996 -1.60618 0
73.7372 -2.15043 0
75.6394 -0.324375 0
73.6083 -2.31365 0
74.5662 -1.91352 0
74.4451 -2.66975 0
75.2849 0.000282311 0
75.014 -2.73036 0
75.1689 -2.57504 0
75.3035 0.00240368 0
75.0795 -3.02725 0
75.4277 -2.76174 0
75.7299 -1.05008 0
75.8698 -0.419093 0
75.5397 -1.55591 0
75.595 -2.78467 0
75.5129 -0.113999 0
75.8089 -2.81312 0
75.7043 -3.27664 0
75.7474 -3.20937 0
74.0886 -0.187016 0
75.6208 -2.32232 0
75.984 -2.88917 0
74.4103 -0.0661129 0
75.8839 -2.80668 0
75.7661 -2.23854 0
75.4969 -1.65718 0
71.3329 0.130106 0
76.0623 -2.31909 0
75.138 -1.41933 0
73.3592 -0.0462868 0
72.8057 0.135763 0
75.98 -2.10973 0
75.7205 -1.27481 0
71.9095 0.108043 0
75.8249 -1.23536 0
67.7882 -2.14756e-07 0
67.7882 1.79064e-07 0
67.7882 -2.51681e-07 0
67.7882 -1.18611e-06 0
67.7882 9.57031e-07 0
67.7882 8.53723e-08 0
67.7882 -3.58031e-06 0
67.7882 -4.37474e-06 0
67.7882 4.00157e-06 0
67.7881 -6.54718e-06 0
67.7881 -1.15292e-05 0
67.7881 1.68417e-05 0
67.788 -7.55798e-06 0
67.788 -4.10295e-05 0
67.7879 -4.15155e-05 0
67.7878 5.18722e-05 0
67.7876 -6.29808e-05 0
67.7874 -8.41905e-05 0
67.7872 0.000187957 0
67.7865 -6.39073e-05 0
67.7861 -0.000251505 0
67.7844 -0.000547975 0
67.7856 -0.00010506 0
67.7826 -0.0002102 0
67.7797 -0.000236477 0
67.7813 -0.00098511 0
67.7753 -0.0020733 0
67.7719 0.000592575 0
67.7636 -0.00212523 0
67.7706 -0.00302121 0
67.7533 0.00188557 0
67.736 -0.00354334 0
67.7463 -0.00429038 0
67.6888 -0.00857866 0
67.6799 -0.0115374 0
67.6529 0.000561543 0
67.7007 -0.00347573 0
67.6298 -0.00915804 0
67.5358 0.0176528 0
67.5902 -0.00244807 0
67.375 -0.0188239 0
67.3292 -0.0223996 0
67.2572 0.0389472 0
67.3873 -0.015968 0
67.157 0.00194387 0
66.9019 0.0542702 0
66.5488 -0.0284356 0
66.8472 -0.0165725 0
66.5174 0.0721066 0
66.3903 0.0257943 0
65.7486 0.18164 0
65.9161 0.0727887 0
65.7175 0.139235 0
65.3905 0.114716 0
64.9183 0.172845 0
65.0995 0.31675 0
64.8092 0.160755 0
64.1264 0.0642721 0
64.6666 0.0483725 0
64.2655 0.191568 0
64.1921 0.182243 0
63.8776 0.141941 0
63.7578 0.123553 0
63.7316 0.105078 0
64.3618 -0.00513242 0
63.7379 0.0600284 0
63.9345 -0.0390264 0
63.8132 0.0315274 0
63.7565 0.0473307 0
64.1553 -0.135372 0
64.3353 -0.254497 0
65.271 -0.221819 0
64.1691 -0.128951 0
64.9672 -0.429745 0
65.3778 -0.438208 0
64.5426 -0.0975063 0
65.2987 -0.360546 0
66.0739 -0.552491 0
65.6195 -0.331213 0
66.2785 -0.676094 0
66.9449 -0.582 0
66.9709 -0.409202 0
67.637 -0.20866 0
67.2445 -0.429943 0
67.3945 -0.556609 0
68.0383 -0.0546897 0
67.7268 -0.419184 0
67.6989 -0.301319 0
67.9851 -0.315535 0
67.9258 -0.29187 0
68.0783 -0.268433 0
68.3642 -0.14311 0
68.5708 -0.0422442 0
68.4157 -0.111869 0
68.4673 -0.0914249 0
68.5043 -0.0557475 0
68.544 -0.0669539 0
68.4914 -0.0470668 0
68.5076 -0.0263447 0
68.558 0.0281429 0
68.5069 0.0558813 0
68.4809 0.0573408 0
68.4877 0.0356285 0
68.553 0.0115689 0
68.4625 0.0615488 0
68.4383 0.0665126 0
68.3196 0.035336 0
68.3902 0.0630768 0
68.3547 0.0923556 0
68.3136 0.0760334 0
68.413 0.0119025 0
68.2974 0.0816764 0
68.2304 0.076927 0
68.1642 0.0419014 0
68.2578 0.0732514 0
68.1744 0.0969957 0
68.1213 0.0641681 0
68.2095 0.00576788 0
68.137 0.0960256 0
68.0063 0.0759427 0
68.0491 0.0327385 0
67.9763 0.0722101 0
67.9526 0.0471027 0
67.9053 0.0635265 0
67.9887 0.0335525 0
67.929 0.0982163 0
67.8562 0.0906311 0
67.8356 0.0234691 0
67.8341 0.075897 0
67.7814 0.0834115 0
67.7222 0.0228506 0
67.8397 0.0577101 0
67.7308 0.0606686 0
67.737 0.0853736 0
67.7372 0.00063841 0
67.704 0.0730753 0
67.6693 0.106838 0
67.637 0.0773013 0
67.6405 0.0225377 0
67.6073 0.0778491 0
67.689 0.0201325 0
67.6843 0.0594866 0
67.6259 0.0974496 0
67.5789 0.126936 0
67.5624 0.135168 0
67.6617 0.00768435 0
67.5296 0.177786 0
67.5137 0.178284 0
67.5148 0.13645 0
67.5322 0.0499355 0
67.5148 0.0632542 0
67.5053 0.17634 0
67.585 0.0243036 0
67.4569 0.255364 0
67.4707 0.220946 0
67.4819 0.178554 0
67.519 0.0276968 0
67.4377 0.252487 0
67.4302 0.398374 0
67.5043 0.0710098 0
67.4984 0.0764873 0
67.4512 0.2437 0
67.4066 0.468361 0
67.5146 0.0374486 0
67.4204 0.508857 0
67.4003 0.508018 0
67.512 0.0421088 0
67.4253 0.637926 0
67.421 0.612692 0
67.4718 0.446716 0
67.5232 0.12855 0
67.5014 0.141119 0
67.408 0.576796 0
67.5179 0.0711888 0
67.4227 0.753701 0
67.4236 0.690321 0
67.4659 0.632145 0
67.5484 0.0524207 0
67.4541 0.813507 0
67.4381 0.852128 0
67.5214 0.346502 0
67.6048 0.584431 0
67.5685 0.265098 0
67.4698 0.806529 0
67.5829 0.133221 0
67.5365 0.997608 0
67.5297 0.978053 0
67.602 0.109126 0
67.5982 0.878436 0
67.6455 1.04253 0
67.6199 1.02583 0
67.7889 0.170973 0
67.7786 1.12368 0
67.8068 1.16761 0
67.6105 0.637056 0
67.8282 0.893339 0
67.7256 0.343664 0
67.9329 1.25827 0
67.9172 0.110733 0
67.9694 1.25461 0
67.9888 1.23095 0
67.8111 0.0853166 0
67.9689 1.12954 0
68.2603 1.34607 0
68.3673 1.35115 0
68.2393 0.333414 0
68.4707 1.3693 0
68.5746 1.47373 0
67.9806 0.849494 0
68.8957 1.08051 0
68.5106 0.35974 0
68.8405 1.52123 0
68.7407 0.112803 0
69.1404 1.52542 0
69.3478 1.50338 0
68.421 0.103646 0
69.3425 1.42681 0
70.0911 1.63986 0
70.6151 1.60846 0
69.366 0.272911 0
70.339 1.62277 0
71.1507 1.86678 0
69.6544 1.19043 0
71.8865 1.3126 0
70.1295 0.233303 0
70.8294 1.68564 0
71.0923 0.0520935 0
71.9814 1.98614 0
72.2134 1.89876 0
70.2117 0.162015 0
72.5213 1.70471 0
72.8236 1.99024 0
73.3646 2.16668 0
74.1637 0.212561 0
73.7159 2.35411 0
73.8289 2.25777 0
74.9389 0.247918 0
74.0981 2.58792 0
74.9228 1.6925 0
73.1979 0.540454 0
72.513 0.192377 0
74.5109 2.86518 0
74.6991 2.53222 0
75.0046 3.06851 0
74.3182 -0.107947 0
75.3813 2.48414 0
75.3848 3.32206 0
75.2199 0.00868234 0
75.2565 2.33622 0
75.6044 3.36251 0
75.8012 2.00232 0
75.7936 0.545621 0
75.6508 3.31345 0
75.8835 3.22163 0
75.5019 1.57616 0
75.6885 2.08728 0
74.1394 0.508424 0
75.7145 2.7937 0
75.4116 0.322825 0
76.0571 2.94551 0
75.36 -0.562836 0
75.8003 -1.1108 0
70.2688 0.793666 0
75.2589 -0.33231 0
73.6181 0.656158 0
74.9771 0.0550082 0
70.5876 0.177438 0
74.4714 0.556827 0
73.679 1.2099 0
69.47 0.480751 0
73.9093 1.01102 0
76.0473 2.73161 0
75.5668 0.141167 0
76.0544 2.53148 0
75.5226 1.80577 0
75.2347 1.58314 0
74.433 0.062696 0
75.8583 1.86753 0
72.6141 1.91483 0
75.7987 1.14615 0
73.7831 0.314786 0
75.6629 0.99015 0
75.2023 0.48604 0
68.9272 1.50759 0
75.0662 0.108964 0
75.136 1.24632 0
75.2957 0.43831 0
73.2755 -0.475006 0
71.3752 -0.0188633 0
74.5302 -0.0845069 0
74.1376 -0.703963 0
72.5425 1.96026 0
74.2695 -0.454078 0
72.2812 0.0434175 0
73.4819 -1.30178 0
73.4478 -1.43062 0
70.6431 -0.0881694 0
72.776 -2.05862 0
72.0041 -1.75891 0
68.9941 -0.311428 0
72.4482 -2.287 0
70.0502 -2.62866 0
71.1047 -1.15688 0
72.0309 -2.14525 0
71.3723 -2.72978 0
71.7689 1.20931 0
68.3803 0.350296 0
70.5977 1.18284 0
69.2526 -0.00404514 0
71.664 -2.80868 0
72.2977 2.19374 0
68.3511 0.272485 0
70.9771 2.67601 0
71.1624 -3.07939 0
69.099 -1.00109 0
69.4092 -3.54943 0
72.3653 2.22066 0
67.9892 1.79118 0
72.2831 2.3152 0
69.8834 3.3015 0
68.104 0.306295 0
71.0439 2.93972 0
69.7967 -3.14826 0
68.7873 -0.292567 0
70.6586 -3.20283 0
70.5053 -3.28816 0
71.3271 2.7777 0
69.9493 3.29443 0
67.9243 0.0656147 0
70.76 3.04627 0
67.9439 3.78307 0
67.8122 2.16434 0
70.1488 -3.32807 0
68.0365 -0.88436 0
70.2439 -3.35802 0
69.6417 3.28147 0
69.5762 -3.39035 0
67.772 -0.91196 0
67.4308 -3.50938 0
68.9541 -3.33888 0
68.3997 -3.34117 0
68.7915 -3.31388 0
67.7367 -0.28768 0
68.4312 -3.25761 0
67.1295 3.10063 0
67.7363 0.391026 0
68.9584 3.38359 0
67.6912 0.108248 0
69.3645 3.28946 0
68.9449 3.34599 0
67.6173 0.154358 0
68.2908 3.26756 0
67.6641 0.0504157 0
68.4179 -3.46763 0
67.7289 -0.524952 0
68.4197 3.52935 0
67.1837 3.83216 0
68.1452 3.13943 0
68.3034 -3.23475 0
67.8163 -0.195075 0
67.7217 -2.78451 0
67.616 -4.27869 0
67.7681 -3.01644 0
66.8785 3.23382 0
67.6109 1.43849 0
68.0167 -3.74903 0
67.6887 -0.359887 0
67.6263 -2.703 0
67.7927 2.93355 0
67.3874 -2.89653 0
67.6656 -1.35264 0
67.4041 -2.62796 0
66.898 3.53071 0
67.5204 1.65102 0
67.521 2.73675 0
67.4967 -3.10786 0
67.6022 -2.59147 0
67.2218 4.68797 0
68.0588 2.9313 0
66.8681 -3.30158 0
67.6763 -0.78315 0
67.523 -2.48683 0
67.8312 2.76253 0
67.2318 4.23212 0
67.4286 2.51801 0
67.4256 2.39977 0
67.6975 5.48909 0
67.3713 2.09919 0
67.2464 -2.09261 0
67.39 -4.44223 0
67.2023 -2.04692 0
67.5954 -2.11732 0
67.6874 -3.82627 0
67.1159 -1.46619 0
67.3676 2.31688 0
67.3444 4.51942 0
67.3731 2.30581 0
67.3019 -1.36084 0
68.1345 -4.76926 0
67.0689 -1.26722 0
66.986 1.71466 0
67.976 4.12295 0
67.1189 1.73619 0
67.1022 1.60217 0
68.1815 1.07778 0
67.0166 1.43391 0
67.5039 -1.11515 0
67.739 -4.02556 0
67.1947 -0.878769 0
66.7461 -0.511167 0
68.2663 -1.70481 0
66.9515 -0.44652 0
68.2229 1.4192 0
68.4469 1.68629 0
67.4192 1.76794 0
67.0426 1.1153 0
68.5428 0.593 0
66.7399 0.685466 0
68.7 -0.886612 0
67.357 -2.71015 0
66.8016 -0.182577 0
66.9732 -0.0891897 0
68.7419 -1.71121 0
68.0456 0.258281 0
67.2151 0.221998 0
68.2827 -1.88121 0
67.7855 -3.18549 0
67.7676 -2.55148 0
67.4843 1.0064 0
68.5162 3.26096 0
69.3853 -3.35562 0
68.3149 -0.68529 0
67.8368 0.836425 0
70.8216 3.07067 0
67.6165 5.12506 0
67.2774 2.19298 0
67.1368 -1.55685 0
66.8613 -2.90255 0
67.5154 -3.64068 0
67.0775 -3.34965 0
67.4927 2.40255 0
68.2336 2.61965 0
68.8286 0.0473793 0
67.0005 0.988322 0
67.62 0.396326 0
67.0713 1.7917 0
67.3798 -1.36729 0
67.837 -0.586023 0
70.7784 -0.256207 0
73.0497 -1.82782 0
74.0298 0.924019 0
70.2212 0.142597 0
67.029 2.6697 0
69.5289 3.31732 0
68.7514 -3.40745 0
67.2733 -2.77122 0
67.9258 -2.19699 0
67.524 -0.225075 0
67.7755 2.71441 0
66.8845 2.66349 0
66.9067 -2.67212 0
67.3718 -2.39623 0
75.9413 2.27226 0
73.8599 0.0783803 0
73.2805 -0.187469 0
76.0352 -2.70772 0
67.5056 -2.43223 0
67.6815 -0.00889434 0
67.5403 0.333249 0
67.5787 0.543695 0
68.6398 0.436716 0
69.2096 2.59552 0
68.0295 -1.65495 0
69.5237 -0.88506 0
68.9281 3.32896 0
72.3269 2.07116 0
72.0421 -2.48134 0
68.5612 -1.34044 0
71.4853 0.387826 0
73.1898 0.37049 0
71.3495 -0.596361 0
72.5255 0.0936087 0
75.5958 0.19504 0
75.0655 3.07503 0
74.6338 -2.83502 0
75.8439 -0.0289619 0
71.2998 -0.105627 0
72.3666 2.01936 0
72.335 -1.91041 0
73.1061 0.0539783 0
67.5215 -1.54304 0
67.7456 -0.139227 0
67.195 0.980094 0
67.5906 0.842745 0
67.2784 1.11704 0
67.6456 1.31154 0
67.7106 -0.228727 0
67.2932 -1.38742 0
75.0977 -0.325636 0
75.5952 -1.26681 0
75.3625 0.641956 0
75.8897 0.0728257 0
68.0178 -1.05579 0
68.6588 -3.50215 0
68.4574 -1.97458 0
67.5812 -5.49725 0
67.5823 4.00535 0
67.2392 2.9545 0
69.5552 1.54985 0
68.9761 0.194293 0
70.6435 0.0810254 0
69.0452 -1.47691 0
68.2466 -0.0545271 0
67.9936 -2.6066 0
68.2162 1.3161 0
67.8772 0.383361 0
67.0996 3.33532 0
68.4391 3.1948 0
68.0715 -3.14582 0
66.9543 -3.67369 0
67.1125 -2.66889 0
67.0255 -3.15711 0
67.299 3.46214 0
66.7671 3.10567 0
73.6994 -0.119822 0
75.0374 -0.173655 0
73.6397 -0.0452719 0
72.6492 1.28953 0
68.499 -3.63123 0
68.7265 -3.56565 0
68.0176 3.54224 0
70.3946 3.17636 0
67.3449 -3.81695 0
67.7136 -2.332 0
67.4241 3.05178 0
67.4719 1.59898 0
68.2027 1.36122 0
68.0872 0.155941 0
68.6097 0.00765002 0
67.8961 -1.23079 0
68.0777 2.00477 0
68.2744 0.711474 0
70.7635 -0.142086 0
71.2067 -0.96946 0
70.9306 0.496889 0
69.6212 0.0904286 0
67.5674 -0.680742 0
67.2935 -1.24994 0
67.4191 1.90397 0
67.7094 0.588995 0
67.8052 -0.464651 0
67.5966 -1.28726 0
67.7359 1.39046 0
67.633 0.511947 0
67.1175 0.945821 0
67.9281 1.96482 0
72.1381 -0.671494 0
75.5229 1.18618 0
76.0239 -1.78291 0
71.8245 0.368094 0
67.427 -2.36879 0
67.2072 -1.75629 0
67.6858 0.106383 0
67.5633 0.976024 0
67.5231 0.0297244 0
67.4507 0.861045 0
67.6426 -0.960785 0
67.7888 -0.111795 0
67.4413 -0.700628 0
67.6263 -0.00811847 0
68.8097 -0.318894 0
68.4838 -0.874896 0
68.42 0.528779 0
68.3229 -0.000558274 0
68.5524 4.41701 0
67.8957 3.48601 0
68.4628 0.542002 0
67.3687 0.3955 0
68.2542 -3.52322 0
67.8217 -4.03526 0
68.7483 0.703757 0
68.2996 -1.76633 0
75.8029 3.50112 0
75.0897 0.844778 0
75.5783 -1.3921 0
75.4748 -3.20727 0
67.7154 -0.176213 0
67.9528 -0.820222 0
67.675 0.0752198 0
67.854 0.106178 0
67.9906 -0.20352 0
67.8612 -0.565019 0
67.8992 0.375899 0
67.744 0.0856399 0
67.5071 0.0542002 0
67.4393 0.345701 0
67.4364 -0.48056 0
67.5498 -0.0463405 0
67.5393 -0.377302 0
67.449 -2.45548 0
67.2078 1.77203 0
67.2213 1.06369 0
67.0643 3.36649 0
67.0414 2.85875 0
66.9087 -2.68488 0
66.9907 -3.46628 0
74.9354 0.859993 0
72.9916 1.95905 0
72.9324 -1.98479 0
74.8319 -1.06717 0
67.3325 -2.87656 0
67.1091 -2.69078 0
66.9927 3.02809 0
67.6306 2.36172 0
67.4393 0.336992 0
67.5335 0.0365621 0
67.5527 -0.025687 0
67.4959 -0.239044 0
70.7612 1.85419 0
73.8022 0.912267 0
73.853 -1.14412 0
71.4302 -1.03527 0
67.342 -2.12488 0
67.0539 -3.44491 0
70.1179 -1.50125 0
70.3059 -0.465766 0
69.0123 0.278976 0
72.1549 0.36577 0
67.3802 2.21112 0
67.3727 2.44603 0
67.6916 -0.0365589 0
67.6009 -0.512251 0
67.6138 0.2696 0
67.6309 0.0534044 0
74.6665 0.0633396 0
73.9837 0.323832 0
74.3936 -0.568607 0
73.7613 0.0389687 0
68.7925 0.913487 0
68.0546 0.282447 0
68.5041 -0.211353 0
69.1331 -1.90308 0
70.4499 0.741244 0
69.8014 1.51251 0
70.2152 -1.57047 0
72.4853 -0.813864 0
68.8082 -2.8614 0
68.9374 -1.17444 0
68.5216 1.9096 0
71.6262 2.19307 0
67.5686 0.101402 0
67.6035 0.0133313 0
67.5701 -0.0290101 0
67.6187 -0.113994 0
67.5609 -0.0698647 0
67.5992 -0.00528807 0
67.5458 0.0437104 0
67.4492 0.250986 0
67.7801 0.428607 0
67.641 1.2659 0
67.7961 -1.11344 0
68.0313 -0.253484 0
68.1437 2.39924 0
67.5746 2.03454 0
67.1961 -3.26516 0
66.9017 -3.6022 0
75.6629 0.39057 0
75.809 0.195671 0
75.9803 -0.220608 0
75.4562 -0.654826 0
67.4737 3.53737 0
67.6317 2.51562 0
67.6294 -0.758575 0
67.6547 -0.23086 0
67.6415 0.163878 0
67.6307 0.825471 0
68.2871 -1.10299 0
67.3597 -2.6698 0
75.8545 2.97931 0
74.9458 0.954853 0
74.5288 -0.812908 0
76.0448 -3.06218 0
67.4028 -3.12693 0
67.8651 -1.48227 0
66.9851 2.8678 0
67.2489 2.94383 0
67.9171 0.124906 0
67.7517 0.219178 0
67.796 -0.0475083 0
67.7722 -0.0222972 0
67.8918 -0.275694 0
66.7918 0.016701 0
70.3379 1.43898 0
74.2642 -0.587439 0
73.0155 -0.117865 0
73.9415 0.205428 0
67.07 2.86171 0
67.9556 1.92959 0
68.0432 -0.749172 0
68.4774 -0.583533 0
69.4264 3.37777 0
67.1037 3.56663 0
67.8565 -3.70841 0
69.5023 -3.36194 0
68.2445 2.07856 0
68.0851 4.83227 0
68.376 0.710464 0
68.4161 1.41871 0
68.2188 -1.30992 0
68.7329 -0.241879 0
67.5452 -0.0306832 0
67.544 -0.0259602 0
67.5118 0.0206105 0
67.4928 0.155248 0
74.4282 -2.4117 0
75.7945 -1.51541 0
74.9454 1.34188 0