# vtk DataFile Version 3.0
Unstructured Grid for Triangles
ASCII
DATASET UNSTRUCTURED_GRID
POINTS 29612 DOUBLE
-0.000272397 1.23686e-05 0
-0.000295789 9.5838e-06 0
-0.000277865 -3.1235e-06 0
0.002024 0.0005 0
0.00203975 0.00049875 0
0.00205 0.0005 0
0.00203975 -0.00049875 0
0.002024 -0.0005 0
0.00205 -0.0005 0
0.0020295 0.0004975 0
0.0020295 -0.0004975 0
0.00201925 0.00049625 0
0.00201925 -0.00049625 0
-0.000529747 -0.000479887 0
-0.00055 -0.0005 0
-0.000524 -0.0005 0
-0.000505983 -0.000484325 0
-0.000498 -0.0005 0
-0.000472 -0.0005 0
-0.000483864 -0.000487761 0
-0.000446 -0.0005 0
-0.000459 -0.000484239 0
-0.000429453 -0.000424878 0
-0.000447486 -0.000420717 0
-0.000441829 -0.000436609 0
-0.000512578 -0.000462101 0
-0.000493078 -0.000453594 0
-0.00050706 -0.000439006 0
-0.000419243 -0.000477545 0
-0.000440307 -0.000471837 0
-0.00043691 -0.000486724 0
-0.000516129 -0.000420948 0
-0.000495355 -0.000415432 0
-0.000511646 -0.00040128 0
-0.000394697 -0.000481197 0
-0.000406302 -0.000455143 0
-0.000537257 -0.000388197 0
-0.000531099 -0.000407297 0
-0.000523982 -0.000388328 0
-0.000370063 -0.000472956 0
-0.000368 -0.0005 0
-0.00035308 -0.000485302 0
-0.0005072 -0.00037867 0
-0.000485506 -0.000383975 0
-0.000490949 -0.000359622 0
-0.000337127 -0.000484331 0
-0.000316 -0.0005 0
-0.000326495 -0.00047415 0
-0.00055 -0.00035 0
-0.000531201 -0.000370361 0
-0.000528367 -0.000346817 0
-0.000363898 -0.000448809 0
-0.000383315 -0.000460336 0
-3.26269e-05 -0.000415503 0
-5.99662e-05 -0.000409556 0
-5.46944e-05 -0.000429488 0
-0.000529747 0.000479887 0
-0.00055 0.0005 0
-0.00055 0.000475 0
-0.00055 0.00045 0
-0.000534834 0.000429171 0
-0.000526943 0.000442611 0
-0.000534026 0.000460176 0
-0.000531099 0.000407297 0
-0.000511672 0.000401178 0
-0.000516129 0.000420948 0
-0.000524 0.0005 0
-0.000505983 0.000484325 0
-0.000531201 0.000370361 0
-0.0005072 0.00037867 0
-0.000523982 0.000388328 0
-0.00048341 0.000469132 0
-0.000483679 0.000487539 0
-0.000528367 0.000346817 0
-0.00055 0.000325 0
-0.000525657 0.000328474 0
-0.000498 0.0005 0
-0.000530382 0.0003125 0
-0.000419243 0.000477545 0
-0.000440015 0.00047335 0
-0.000425917 0.000463678 0
-0.000435138 0.000262661 0
-0.000414982 0.000274462 0
-0.000435654 0.000285217 0
-0.000459 0.000484239 0
-0.000436852 0.000487027 0
-0.000446 0.0005 0
-0.000533308 0.000292503 0
-0.00055 0.000275 0
-0.000523377 0.000276953 0
-0.000425282 0.000446352 0
-0.000409368 0.000435728 0
-0.000406302 0.000455143 0
0.002009 0.000495 0
0.001998 0.0005 0
0.00199875 0.00049375 0
0.0019885 0.0004925 0
0.001972 0.0005 0
0.00197825 0.00049125 0
0.001968 0.00049 0
0.00195775 0.00048875 0
0.001946 0.0005 0
0.0019475 0.0004875 0
0.00193725 0.00048625 0
0.00192 0.0005 0
0.001927 0.000485 0
0.00191675 0.00048375 0
0.0019065 0.0004825 0
0.001894 0.0005 0
0.00189625 0.00048125 0
0.001886 0.00048 0
0.001868 0.0005 0
0.00187575 0.00047875 0
0.0018655 0.0004775 0
0.00185515 0.00048575 0
0.001842 0.0005 0
0.001845 0.000475 0
0.00185525 0.00047625 0
0.00182564 0.0004829 0
0.001816 0.0005 0
0.0018245 0.0004725 0
0.00183475 0.00047375 0
0.00181425 0.00047125 0
0.00180295 0.000482657 0
0.00179 0.0005 0
0.00179375 0.00046875 0
0.001804 0.00047 0
0.00178168 0.000480619 0
0.001764 0.0005 0
0.00177325 0.00046625 0
0.0017835 0.0004675 0
0.00176428 0.000476631 0
0.001763 0.000465 0
0.001738 0.0005 0
0.001751 0.000484164 0
0.00175275 0.00046375 0
0.00174025 0.000475632 0
0.001712 0.0005 0
0.00172615 0.000478449 0
0.001722 0.00046 0
0.00173225 0.00046125 0
0.0017015 0.0004575 0
0.00171243 0.00047381 0
0.00169554 0.000479999 0
0.001686 0.0005 0
0.00167507 0.000479751 0
0.00168498 0.000464861 0
0.00166 0.0005 0
0.0016558 0.000471459 0
0.00167135 0.000462887 0
0.001681 0.000455 0
0.0016605 0.0004525 0
0.00167075 0.00045375 0
0.00164059 0.000461599 0
0.0016394 0.000479551 0
0.00162881 0.00046615 0
0.00162975 0.00044875 0
0.00165025 0.00045125 0
0.00164 0.00045 0
0.00161754 0.000458641 0
0.00161722 0.000478101 0
0.00159956 0.000458294 0
0.00160925 0.00044625 0
0.0016195 0.0004475 0
0.00157667 0.000460322 0
0.00158875 0.00044375 0
0.00159194 0.000480155 0
0.001599 0.000445 0
0.0015785 0.0004425 0
0.00155808 0.000456757 0
0.00155647 0.000476701 0
0.00154059 0.000466642 0
0.00153756 0.000450083 0
0.00154839 0.000450446 0
0.00156825 0.00044125 0
0.00151954 0.000480508 0
0.00154052 0.00048477 0
0.00153 0.0005 0
0.00154775 0.00043875 0
0.00152142 0.000456625 0
0.00152821 0.000445753 0
0.0015375 0.0004375 0
0.001504 0.0005 0
0.00149644 0.000485168 0
0.00151787 0.000443178 0
0.00152725 0.00043625 0
0.00150675 0.00043375 0
0.001517 0.000435 0
0.00148119 0.000450887 0
0.00148072 0.000475756 0
0.00146584 0.000463516 0
0.00150008 0.00046396 0
0.00149351 0.00044543 0
0.0015061 0.000446252 0
0.001476 0.00043 0
0.00148625 0.00043125 0
0.00146492 0.000482975 0
0.00144888 0.000473562 0
0.00146676 0.000444259 0
0.00145255 0.000453656 0
0.00145652 0.000438669 0
0.00141401 0.000479821 0
0.001426 0.0005 0
0.0014 0.0005 0
0.00144374 0.000438862 0
0.0014555 0.0004275 0
0.001435 0.000425 0
0.00144525 0.00042625 0
0.00142746 0.000438121 0
0.00141288 0.000443191 0
0.00141707 0.000432778 0
0.0013921 0.000438992 0
0.00140355 0.00045932 0
0.00138302 0.00045922 0
0.00142912 0.000458869 0
0.00140592 0.000430037 0
0.0014145 0.0004225 0
0.00136458 0.00045869 0
0.00137106 0.00044063 0
0.001394 0.00042 0
0.00138259 0.000428915 0
0.00137484 0.000477094 0
0.00139166 0.000478902 0
0.0013586 0.000478984 0
0.00133449 0.000478649 0
0.00134717 0.000461848 0
0.00137256 0.000425134 0
0.00135323 0.000424541 0
0.00136325 0.00041625 0
0.00136122 0.00042876 0
0.00131206 0.000447284 0
0.00133168 0.000456738 0
0.00131773 0.000465243 0
0.00134756 0.000440343 0
0.00132747 0.000436463 0
0.00133483 0.000426786 0
0.00131081 0.00041867 0
0.00132382 0.000422815 0
0.00131507 0.00043122 0
0.00131059 0.000480123 0
0.0013325 0.0004125 0
0.0012915 0.0004075 0
0.0012982 0.000418199 0
0.00128915 0.000426216 0
0.00126366 0.000447574 0
0.00127331 0.000430908 0
0.00128781 0.000444872 0
0.00125336 0.000428376 0
0.00130218 0.000431077 0
0.00127894 0.000416344 0
0.00124774 0.000469608 0
0.00127668 0.000464148 0
0.00126591 0.00048331 0
0.00126722 0.000418415 0
0.00125768 0.000411931 0
0.00124326 0.000413546 0
0.0012505 0.0004025 0
0.00122408 0.000450118 0
0.00120276 0.000447432 0
0.0012139 0.000432235 0
0.00124336 0.000444132 0
0.00123056 0.000427595 0
0.00122977 0.000409049 0
0.0012185 0.000469217 0
0.00122676 0.000485947 0
0.00120525 0.000486094 0
0.00121479 0.000413153 0
0.00119547 0.000424221 0
0.00120249 0.000407448 0
0.00119925 0.00039625 0
0.00119346 0.000406114 0
0.00117479 0.000447279 0
0.00114726 0.000445259 0
0.0011571 0.000427814 0
0.00119443 0.000466611 0
0.00117447 0.000421596 0
0.00118421 0.00040752 0
0.00117409 0.000404437 0
0.00116775 0.000470073 0
0.001179 0.0004855 0
0.00115473 0.000484802 0
0.0011685 0.0003925 0
0.00117875 0.00039375 0
0.00115454 0.000400551 0
0.001148 0.00039 0
0.00115825 0.00039125 0
0.00111703 0.000423398 0
0.00113786 0.000426731 0
0.00112589 0.000443871 0
0.00113234 0.000406671 0
0.00114754 0.000413371 0
0.001106 0.000442326 0
0.00109703 0.000424261 0
0.0011275 0.0003875 0
0.00113775 0.00038875 0
0.00110211 0.000480875 0
0.00108244 0.000471951 0
0.00109312 0.000458413 0
0.00111755 0.000399116 0
0.0010944 0.000392972 0
0.00110415 0.000405876 0
0.00108839 0.000407536 0
0.00106472 0.000476905 0
0.00107274 0.000457868 0
0.00108011 0.000392415 0
0.00106885 0.000404365 0
0.00106625 0.000388708 0
0.00105286 0.000419254 0
0.00105055 0.000395469 0
0.00104215 0.000439764 0
0.00106346 0.000440629 0
0.00100945 0.000451249 0
0.00102825 0.00045614 0
0.00101189 0.000468452 0
0.00107625 0.00038125 0
0.00105575 0.00037875 0
0.001066 0.00038 0
0.00103352 0.000476905 0
0.00101803 0.00048465 0
0.00103685 0.000389398 0
0.0010245 0.00038825 0
0.00103525 0.00037625 0
0.00101092 0.000399779 0
0.00101267 0.000382619 0
0.00101382 0.00042025 0
0.00103187 0.000405286 0
0.00103359 0.000424605 0
0.000987383 0.00045447 0
0.000999411 0.000435161 0
0.0009744 0.000433145 0
0.0010045 0.0003725 0
0.00101475 0.00037375 0
0.000970845 0.000465215 0
0.000952614 0.000467664 0
0.000961768 0.000449944 0
0.00099729 0.000387704 0
0.000978901 0.00039598 0
0.000985823 0.000381492 0
0.000962289 0.000393709 0
0.000974259 0.000381279 0
0.00097375 0.00036875 0
0.000963045 0.000376631 0
0.000958 0.0005 0
0.000932 0.0005 0
0.000947542 0.00048457 0
0.000949675 0.000385245 0
0.000936214 0.000389472 0
0.000940006 0.000374906 0
0.000966411 0.000412573 0
0.000944241 0.000407079 0
0.000903569 0.000424993 0
0.000921701 0.000402409 0
0.000927439 0.000427744 0
0.000889795 0.000409067 0
0.000903071 0.00040248 0
0.000925447 0.000377721 0
0.00093275 0.00036375 0
0.000907708 0.000387127 0
0.000911303 0.000370839 0
0.000911933 0.000455145 0
0.000930678 0.000473279 0
0.000911886 0.000482603 0
0.000887724 0.000388076 0
0.000899595 0.000375116 0
0.000902 0.00036 0
0.000889241 0.00036954 0
0.000836977 0.000459472 0
0.000836223 0.000483578 0
0.000820467 0.000474142 0
0.000871227 0.000403557 0
0.000861 0.000355 0
0.000868368 0.000365714 0
0.00085484 0.00036588 0
0.000847735 0.000402845 0
0.000823121 0.000421599 0
0.000826582 0.000398147 0
0.000846943 0.00042454 0
0.000838832 0.000378613 0
0.000835569 0.000363808 0
0.000844098 0.00036291 0
0.00085075 0.00035375 0
0.000851465 0.000477164 0
0.00083025 0.00035125 0
0.000822824 0.000368659 0
0.00081446 0.000357362 0
0.000805884 0.000371794 0
0.000753471 0.000477524 0
0.000738313 0.000473927 0
0.000739102 0.000461526 0
0.00079826 0.000358588 0
0.000788607 0.000376287 0
0.000781733 0.000357987 0
0.000816783 0.000384471 0
0.000807975 0.000404095 0
0.000752138 0.000404775 0
0.000767682 0.000417043 0
0.000749617 0.000421803 0
0.000752903 0.000384008 0
0.000738293 0.000393136 0
0.000772614 0.000394048 0
0.00076863 0.000371878 0
0.000765995 0.000354121 0
0.000779 0.000345 0
0.00071811 0.000453059 0
0.000738069 0.000437967 0
0.000752085 0.000365972 0
0.000728123 0.000374583 0
0.000741845 0.000354664 0
[...]
CELL_DATA 58684
VECTORS velocity DOUBLE
64.8055 0.125726 0
70.3087 0.000102076 0
70.0821 0.000113677 0
70.3212 0.000449714 0
70.1033 2.31878e-06 0
70.3294 -0.00348269 0
70.1254 0.00999915 0
67.758 -0.0103381 0
67.7462 -0.0448982 0
67.8004 -0.0104117 0
67.863 -0.013757 0
67.8686 -0.455406 0
67.7549 -0.211263 0
67.9325 -0.135503 0
67.738 -0.360171 0
68.0216 -0.167739 0
67.7651 -0.222025 0
68.1297 -0.129639 0
67.7863 -0.573067 0
68.3802 -0.104315 0
67.8068 -0.217859 0
68.1411 -0.308504 0
71.6215 -1.40329 0
67.7719 0.0216591 0
67.7406 0.108431 0
67.7735 0.0503628 0
67.7579 0.265837 0
67.7429 0.0409139 0
67.7734 0.351581 0
67.7955 0.0828761 0
67.8063 0.268109 0
67.756 0.0540994 0
67.7053 0.267408 0
67.9369 0.155378 0
67.7182 0.98666 0
67.8627 0.0740842 0
67.8449 0.315146 0
67.9484 0.310887 0
70.3321 -0.00300739 0
70.3395 0.000524628 0
70.355 -0.00434946 0
70.3571 -0.00489073 0
70.3646 0.0012454 0
70.3817 -0.00396401 0
70.3862 -0.00666741 0
70.3903 -0.00297463 0
70.3996 0.00202179 0
70.4155 -0.00729126 0
70.4188 -0.00507715 0
70.4285 0.00305169 0
70.4485 -0.00694613 0
70.4531 -0.00713943 0
70.4584 -0.00184091 0
70.4694 0.00393503 0
70.4848 -0.00597292 0
70.489 -0.00249604 0
70.4996 0.00485201 0
70.5189 -0.00646078 0
70.5243 -0.00597186 0
70.5318 -0.0009475 0
70.5439 0.00380558 0
70.5527 -0.00842647 0
70.5703 -0.00447081 0
70.591 0.00293215 0
70.5925 -0.00891842 0
70.5973 -0.00936983 0
70.6086 -0.00423054 0
70.6304 0.00345124 0
70.6334 -0.0155337 0
70.6459 -0.00773994 0
70.67 0.00364929 0
70.6754 -0.0244178 0
70.6879 -0.01639 0
70.7105 -0.0346933 0
70.7285 0.00289132 0
70.7402 -0.029479 0
70.756 -0.0187248 0
70.7841 0.00190812 0
70.7944 -0.0482046 0
70.8499 -0.0377026 0
70.8037 -0.0397662 0
70.8574 -0.000139568 0
70.8859 -0.0375873 0
70.8637 -0.0614383 0
70.9596 -0.0491087 0
70.9297 -0.0642027 0
70.9249 -0.0781426 0
70.9669 -0.108374 0
71.0405 -0.0804997 0
71.095 -0.107414 0
71.0073 -0.0890658 0
71.0682 -0.137384 0
71.1291 -0.117282 0
71.1237 -0.110727 0
71.1532 -0.15866 0
71.2709 -0.147893 0
71.2002 -0.135887 0
71.2415 -0.177633 0
71.3161 -0.203158 0
71.3318 -0.156616 0
71.4391 -0.189941 0
71.3433 -0.16551 0
71.455 -0.0615139 0
71.4511 -0.203801 0
71.5395 -0.196252 0
71.5002 -0.217979 0
71.5502 -0.0605244 0
71.5559 -0.221157 0
71.6256 -0.252382 0
71.6921 -0.124832 0
71.6818 -0.140312 0
71.6212 -0.203675 0
71.7561 -0.243343 0
71.749 -0.0909228 0
71.87 -0.203988 0
71.8146 -0.128686 0
71.9312 -0.00166728 0
71.8948 -0.215117 0
71.9517 -0.23609 0
72.0706 -0.1857 0
72.1014 -0.103902 0
71.9633 -0.10939 0
72.0939 -0.188405 0
72.17 -0.0820196 0
72.1884 -0.166305 0
72.0919 -0.0420543 0
72.2307 -0.137634 0
72.2183 -0.0247622 0
72.2545 -0.150684 0
72.3137 -0.128296 0
72.3265 -0.0335188 0
72.3629 -0.0587094 0
72.2709 -0.0158305 0
72.4288 -0.0427492 0
72.2851 -0.0195545 0
72.411 -0.0637405 0
72.4976 0.0157785 0
72.4633 0.0285784 0
72.4709 0.0578321 0
72.4397 0.00404275 0
72.5111 0.029205 0
72.3933 0.0194483 0
72.5427 0.071059 0
72.5737 0.100119 0
72.549 0.0727664 0
72.4715 0.0718916 0
72.566 0.0876243 0
72.5598 0.111238 0
72.4725 0.0247098 0
72.5918 0.130017 0
72.6072 0.159235 0
72.6327 0.0531348 0
72.5507 0.0681611 0
72.6111 0.126231 0
72.6144 0.127389 0
72.5719 0.0227964 0
72.6275 0.152203 0
72.6553 0.123798 0
72.7134 0.0070677 0
72.6584 0.0483532 0
72.7815 -0.0647442 0
72.6857 0.0623306 0
72.8199 -0.0313978 0
72.6937 0.0363612 0
72.7584 -0.0926581 0
72.9267 -0.0763103 0
72.8703 -0.231425 0
72.9482 -0.286432 0
73.0105 -0.214176 0
73.3291 -0.242499 0
72.8426 -0.224067 0
72.8929 -0.306842 0
73.2751 -0.112683 0
73.0632 -0.514154 0
73.2128 -0.619237 0
73.0883 -0.443307 0
73.4939 -0.319047 0
73.6142 -0.466835 0
73.2374 -0.737726 0
73.79 -0.335525 0
73.4544 -0.818293 0
73.5478 -0.922338 0
73.5942 -1.07946 0
73.9321 -0.00937873 0
73.9538 -1.1767 0
73.6467 -0.880983 0
74.1649 -0.85233 0
74.3876 -1.02679 0
74.0249 -1.36241 0
74.2594 -1.39794 0
74.2714 -0.287562 0
74.3743 -1.39286 0
74.4513 -1.64614 0
74.5358 -1.57593 0
75.0126 -0.297069 0
74.6063 -1.20861 0
75.0484 -1.76845 0
75.2685 -1.20882 0
75.0461 -1.0182 0
75.202 -1.79473 0
75.197 -1.8347 0
75.0253 -0.278911 0
75.4822 -1.88998 0
75.6121 -1.69708 0
75.578 -0.217904 0
75.802 -1.64867 0
75.4707 -1.2499 0
75.8253 -0.790784 0
75.9674 -0.901024 0
75.8812 -1.35159 0
76.0567 -1.63629 0
75.6211 -0.362967 0
76.3234 -1.17874 0
76.3026 -1.54796 0
76.5536 -1.08619 0
75.5356 -0.0192271 0
76.138 -0.77488 0
76.5213 -0.951294 0
75.6319 -0.202851 0
76.5721 -0.862008 0
76.0272 -0.328112 0
76.5815 -0.870576 0
75.6172 -0.0581158 0
76.439 -0.307911 0
76.5303 -0.367451 0
75.4953 -0.0353192 0
76.5193 -0.198469 0
76.1655 0.153982 0
75.9634 -0.0321137 0
75.6914 0.0018982 0
76.2172 0.35382 0
75.4449 0.0537451 0
75.1374 0.00367555 0
76.0498 0.159388 0
76.0184 0.440431 0
75.8404 0.572456 0
75.2334 0.0478182 0
75.4896 0.428658 0
75.25 0.52226 0
75.0678 0.00820522 0
75.0286 0.399739 0
75.1659 0.609113 0
75.2956 0.300738 0
75.0888 0.0152336 0
75.0735 -0.00782957 0
74.9275 0.450618 0
74.9865 -0.00566417 0
74.7873 0.440368 0
74.6294 0.19936 0
74.6874 0.304699 0
75.0301 -0.148013 0
74.8312 -0.10304 0
74.5808 -0.370257 0
75.0263 -0.00639734 0
74.5513 -0.46629 0
74.8281 -0.798622 0
74.9363 -0.319308 0
75.0734 -0.219775 0
74.6414 -0.798159 0
75.1123 -0.3013 0
75.1311 -0.045408 0
74.9272 -0.759834 0
74.8096 -1.16357 0
75.0028 -1.23655 0
75.2406 -0.19434 0
75.4316 -1.1073 0
75.112 -1.33834 0
75.2198 -0.0852898 0
75.3453 -1.61041 0
75.6761 -1.65585 0
75.7656 -0.792295 0
75.1203 -0.00336428 0
76.0201 -1.58547 0
75.7638 -0.302619 0
76.0115 -0.289292 0
76.0575 -1.33279 0
75.9415 -0.883697 0
76.647 -1.21151 0
75.266 0.0532936 0
76.5444 -1.41559 0
76.455 -0.552795 0
76.9675 -0.710107 0
75.1827 0.0101774 0
77.1103 0.136356 0
76.9187 0.39661 0
74.2619 0.110609 0
77.3003 -0.336794 0
77.3759 0.279349 0
75.3045 0.797691 0
75.0289 0.331268 0
76.3483 0.298223 0
77.3055 0.843114 0
74.4865 0.203693 0
76.8641 1.65858 0
77.2351 1.00743 0
77.2243 1.23234 0
73.8839 0.93003 0
75.921 1.84404 0
76.804 1.98765 0
73.9018 0.149072 0
76.6144 2.43308 0
76.5558 2.34729 0
75.6304 3.5539 0
72.3065 0.25146 0
76.4052 3.31809 0
74.9688 2.3368 0
73.5085 1.03933 0
73.3153 2.03396 0
76.2159 3.64073 0
75.4807 4.04235 0
72.7025 0.416379 0
75.3099 4.59668 0
70.1344 0.00406867 0
70.1467 -0.00034467 0
70.1809 0.0136835 0
70.1845 0.0139947 0
70.2054 -0.000863653 0
70.2516 0.0180138 0
70.2585 0.0249242 0
70.2674 0.0172137 0
70.2957 -0.00107739 0
70.3371 0.0332801 0
70.3416 0.0248736 0
70.367 -0.00143215 0
70.4246 0.0390492 0
70.4303 0.0419546 0
70.4401 0.0266458 0
70.4718 -0.00121072 0
70.5174 0.0506661 0
70.522 0.0383697 0
70.5524 -0.000442392 0
70.6202 0.0641614 0
70.6258 0.0607247 0
70.699 0.0792449 0
70.6384 0.0314869 0
70.7333 0.0460169 0
70.8116 0.0715395 0
70.7449 0.0463753 0
70.8366 0.0711928 0
70.8678 0.0501102 0
70.9124 0.0848765 0
70.8488 0.0515762 0
70.9484 0.049839 0
71.0011 0.0916085 0
70.953 0.0487119 0
71.0745 0.0956665 0
71.084 0.0828559 0
71.1097 0.0581891 0
71.049 0.0511749 0
71.1197 0.0613581 0
71.1812 0.0448315 0
71.1415 0.0406005 0
71.2379 0.0796578 0
71.2268 0.0282908 0
71.2643 0.0397079 0
71.2193 0.0439532 0
71.2757 0.0514167 0
71.325 0.0433122 0
71.3349 0.0225676 0
71.3154 0.0435589 0
71.3591 0.0392236 0
71.3637 0.0383463 0
71.3861 0.00590519 0
71.3819 0.0118271 0
71.3974 0.0132229 0
71.4117 0.01417 0
71.4051 -0.00105945 0
71.4185 -0.000497868 0
71.4185 -0.00532568 0
71.4063 -0.0216956 0
71.4052 -0.00937933 0
71.4179 -0.0254825 0
71.42 -0.0323285 0
71.4058 -0.0281678 0
71.3917 -0.0174476 0
71.3978 -0.041744 0
71.395 -0.00530367 0
71.4096 -0.0497268 0
71.3949 -0.0573551 0
71.3916 -0.0498233 0
71.3857 -0.0296906 0
71.3902 -0.061567 0
71.3863 -0.0535851 0
71.3621 -0.0206019 0
71.3822 -0.0510206 0
71.3838 -0.04923 0
71.3813 -0.0449718 0
71.3553 -0.0146284 0
71.3734 -0.0310829 0
71.3825 -0.0284819 0
71.3678 -0.022366 0
71.382 -0.0201357 0
71.4037 0.0184206 0
71.3907 0.00376905 0
71.4238 0.00840541 0
71.4134 0.0331434 0
71.4233 0.0354927 0
71.4465 0.0193506 0
71.4653 0.082498 0
71.443 0.0525433 0
71.5073 0.0957961 0
71.4665 0.044463 0
71.5301 0.147858 0
71.6765 0.268306 0
71.683 0.0612413 0
71.6245 0.159347 0
71.7607 0.311874 0
71.7382 0.232449 0
71.6389 0.0737475 0
71.81 0.317752 0
71.892 0.381843 0
71.9295 0.0945555 0
72.0621 0.186106 0
72.0408 0.373227 0
72.0839 0.501317 0
71.9616 0.251294 0
72.2176 0.507358 0
72.3147 0.583653 0
72.5977 0.183564 0
72.3472 0.339872 0
72.5573 0.693355 0
72.5973 0.603335 0
72.3329 0.184513 0
72.6804 0.681845 0
72.8902 0.717928 0
73.0309 0.269776 0
72.8125 0.615005 0
73.217 0.878118 0
73.2216 0.648199 0
72.7852 0.206506 0
73.3364 0.78417 0
73.6715 0.926768 0
73.356 0.258111 0
73.6531 0.687236 0
73.7009 0.290006 0
73.8755 0.688709 0
73.5994 0.400384 0
73.9707 0.904353 0
74.2213 0.769425 0
73.9682 0.203779 0
74.1837 0.762732 0
74.4804 0.749616 0
74.3604 0.137756 0
74.101 0.653111 0
74.4784 0.575061 0
74.6429 0.627367 0
74.2978 0.110287 0
74.6951 0.500746 0
74.928 0.50343 0
74.885 0.356958 0
74.6286 0.104405 0
74.9888 0.258695 0
74.5268 0.166874 0
74.703 0.485037 0
74.9946 0.356334 0
75.1206 0.230193 0
75.1151 0.160756 0
74.578 0.00117935 0
75.1545 0.0430521 0
75.1584 0.0139696 0
75.0334 -0.0368132 0
74.8528 0.0148887 0
74.8144 0.00508319 0
75.095 -0.0496132 0
74.8024 0.0588381 0
75.0365 -0.133947 0
75.001 -0.127448 0
74.8964 -0.102967 0
74.7353 -0.000368033 0
74.8778 -0.123527 0
74.7148 -0.21532 0
74.6584 0.0162992 0
74.7379 0.00168496 0
74.6941 -0.0898291 0
74.5178 -0.101031 0
74.7555 0.0120465 0
74.4832 -0.112159 0
74.4033 0.011055 0
74.4957 0.0547035 0
74.2662 0.198657 0
74.2107 0.24446 0
74.2069 0.43015 0
74.3971 0.192152 0
74.4112 0.168567 0
74.2274 0.3372 0
74.4768 0.0946992 0
74.1199 0.523627 0
74.0676 0.629489 0
74.1823 0.760843 0
74.3408 0.105546 0
74.0878 1.00295 0
74.0821 1.10785 0
74.2527 0.556839 0
74.4133 0.952459 0
74.352 0.499085 0
74.1417 1.15422 0
74.3684 0.264577 0
74.3129 1.5457 0
74.3077 1.54492 0
74.3706 0.233171 0
74.4772 1.46787 0
74.7261 1.7823 0
74.594 1.7316 0
74.7313 0.347178 0
75.2185 1.92516 0
75.2979 2.09206 0
74.525 1.09934 0
75.0648 1.42652 0
74.7145 0.650584 0
75.6855 2.18744 0
74.896 0.195865 0
75.7633 2.01914 0
75.7134 1.84919 0
74.7094 0.161277 0
75.4765 1.60443 0
76.3028 1.741 0
76.4504 1.63513 0
75.3575 0.380057 0
76.5198 1.44796 0
76.548 1.48777 0
75.4088 1.12861 0
76.3354 0.784671 0
75.5025 0.321743 0
76.6934 1.2169 0
75.4743 0.118423 0
76.8125 0.917566 0
76.8413 0.777808 0
75.3068 0.0937842 0
76.4851 0.611321 0
76.8306 0.255325 0
76.7861 0.124344 0
75.713 0.123461 0
76.728 0.129675 0
76.6867 -0.176065 0
76.5446 0.487728 0
76.3485 -0.145961 0
75.6951 0.0418292 0
76.6087 -0.0406548 0
75.6168 0.0107814 0
76.5256 -0.375421 0
76.492 -0.407686 0
75.5793 0.0216991 0
76.3456 -0.397506 0
76.342 -0.527579 0
76.2354 -0.578846 0
75.4187 -0.118252 0
76.1607 -0.628969 0
76.1415 -0.610629 0
75.4011 -0.239854 0
76.1055 -0.651556 0
75.8834 -0.624917 0
75.7872 -0.241248 0
75.7026 -0.0899838 0
76.0627 -0.657245 0
76.0399 -0.721835 0
76.1159 -0.731461 0
75.2825 -4.98796e-06 0
75.9132 -0.875827 0
76.1199 -0.926276 0
75.2136 -0.087735 0
75.8781 -0.872049 0
76.1528 -1.14638 0
75.5523 -1.06784 0
75.0836 -0.460791 0
76.1162 -1.3191 0
76.1125 -1.5141 0
75.6272 -0.781449 0
75.1893 -1.77076 0
73.963 -1.58337 0
76.009 -1.61756 0
74.1768 -0.24788 0
76.0423 -2.10099 0
74.7462 4.99901 0
75.2129 4.49491 0
71.553 1.35383 0
74.7021 4.93892 0
73.2162 4.62413 0
74.1161 5.41515 0
71.9267 0.525173 0
73.5236 5.55503 0
72.8143 5.51863 0
71.087 0.695185 0
72.7791 5.83569 0
76.0196 -2.38806 0
74.3968 -0.161634 0
75.9303 -2.61272 0
75.2444 -2.98701 0
74.7771 -2.59603 0
73.7765 -0.166848 0
75.4183 -3.35697 0
72.0712 5.41143 0
75.0238 -4.19156 0
73.6111 -0.864945 0
74.8721 -4.08722 0
74.2324 -4.7652 0
70.3893 1.6813 0
74.0408 -4.73705 0
74.6521 -2.49968 0
74.4685 -4.24674 0
73.1112 -3.2157 0
72.2408 -0.540488 0
73.8399 -4.37467 0
73.3875 -4.71873 0
71.6447 5.676 0
73.4061 -4.73156 0
72.8068 -0.27888 0
72.7727 -5.04333 0
72.3913 -5.50079 0
71.8355 -0.356836 0
71.7389 -5.68455 0
71.9613 -4.14886 0
70.5256 -0.456397 0
71.1599 -5.80588 0
70.9742 -3.28985 0
71.9015 -2.47696 0
71.4961 -4.99096 0
70.7676 -5.30968 0
72.1969 3.03766 0
69.8588 0.388335 0
71.7316 2.06848 0
70.8903 -0.045361 0
70.5031 -5.71636 0
71.4801 5.39191 0
69.744 0.275814 0
70.9974 4.62417 0
69.9594 -5.71375 0
70.6275 -1.17868 0
69.4345 -4.23026 0
70.968 6.08299 0
69.1189 1.51396 0
70.9482 6.00279 0
69.6011 5.13611 0
69.2649 0.301783 0
70.0679 5.36412 0
69.748 -4.34508 0
70.3658 -0.344641 0
69.4118 -5.84931 0
69.4647 -5.681 0
70.2552 5.73729 0
69.0602 5.53276 0
68.9123 0.0327591 0
69.7067 5.70022 0
68.5157 3.61658 0
68.8995 1.72897 0
68.7961 -5.82867 0
69.225 -0.798136 0
69.0364 -5.72997 0
68.1691 5.76856 0
68.3961 -5.4182 0
68.75 -0.826794 0
68.5896 -2.57469 0
67.6737 -5.25487 0
69.4322 -2.89422 0
67.5317 -5.07058 0
68.5091 -0.244772 0
66.9258 -4.9153 0
68.184 2.18898 0
68.5299 0.352777 0
67.9457 4.92218 0
68.2891 0.0969882 0
67.7212 5.68989 0
67.6473 5.36847 0
68.1314 0.15289 0
67.1813 4.72511 0
68.0863 0.109101 0
67.8047 -4.58801 0
68.5104 -0.462734 0
68.382 4.25784 0
67.7023 0.900363 0
66.9983 4.45678 0
66.8657 -4.92168 0
68.6044 -0.192181 0
65.7356 -4.23438 0
67.7775 -0.760357 0
66.255 -4.22766 0
67.8274 1.97186 0
67.7823 0.199866 0
68.2823 -3.78873 0
67.7786 -0.219624 0
65.8367 -4.00897 0
66.5848 4.04281 0
66.8681 -3.24032 0
67.781 -0.464767 0
66.0626 -3.50611 0
67.3993 2.35538 0
65.9555 1.38086 0
66.2751 3.52208 0
67.5 -1.02706 0
65.9742 -3.81002 0
67.6864 0.607748 0
66.1234 4.6368 0
67.4068 -1.93593 0
67.7851 -0.154551 0
65.7657 -3.50915 0
66.046 4.20644 0
67.6777 0.845735 0
66.0398 3.3427 0
65.8565 3.26938 0
67.7097 0.550748 0
65.3573 2.9088 0
65.1595 -3.11641 0
67.7331 -0.524205 0
64.9076 -3.13071 0
66.6512 -1.62665 0
67.7827 -0.356988 0
64.5827 -2.20902 0
65.2933 3.61745 0
67.5866 0.693524 0
66.3132 2.3634 0
64.965 -1.98633 0
67.6381 -0.509034 0
64.4668 -1.86317 0
64.4993 2.61816 0
67.6454 0.317214 0
64.7889 2.49726 0
65.034 2.02598 0
67.7906 0.0361999 0
64.4654 2.13869 0
65.3857 -1.25762 0
67.5686 -0.726145 0
64.8192 -1.13636 0
63.9506 -0.762117 0
67.0261 -0.833765 0
64.1235 -0.662184 0
66.76 0.625461 0
67.7094 0.0731611 0
66.0498 1.71391 0
64.4105 1.66109 0
67.5475 -0.00582711 0
63.98 1.03985 0
67.2672 -0.32819 0
67.7539 -0.204464 0
63.9966 -0.294152 0
64.3486 -0.166853 0
67.7355 -0.140291 0
66.0456 0.0957714 0
64.613 0.272977 0
67.7466 -0.125541 0
66.9354 -4.15294 0
67.7821 -0.764069 0
67.7459 0.217395 0
67.2756 4.85455 0
68.036 -5.42023 0
69.735 -0.676918 0
68.7866 0.757856 0
69.4803 5.9748 0
67.6873 0.391541 0
64.9465 3.45224 0
64.6907 -2.21886 0
67.6717 -0.375891 0
67.7105 -0.911352 0
67.2117 -2.84214 0
67.7171 0.914095 0
67.8686 0.328345 0
67.73 -0.0507592 0
64.3671 1.4302 0
68.2363 0.367136 0
67.8115 1.17505 0
68.0645 -1.12809 0
68.7866 -0.54063 0
71.864 -0.805562 0
72.0662 -5.52863 0
73.0372 5.5383 0
71.678 0.309903 0
67.4202 1.19728 0
68.162 5.54775 0
67.7598 -5.01225 0
68.2878 -1.88194 0
66.861 -1.25625 0
65.2082 -0.29049 0
66.118 4.13173 0
67.6078 1.3768 0
67.5897 -1.47275 0
65.2357 -3.50537 0
75.7859 -2.99829 0
73.5372 -0.419245 0
73.4588 0.509246 0
76.483 3.01133 0
67.7347 -1.02782 0
67.7793 -0.0896202 0
67.7237 0.286941 0
68.1181 0.579435 0
70.2392 0.521934 0
70.0943 2.90321 0
69.2995 -1.44276 0
70.9891 -1.16682 0
69.448 3.47379 0
71.2837 5.73461 0
70.8735 -5.79098 0
70.0065 -1.32248 0
72.4571 1.11002 0
73.3204 3.49855 0
72.2054 -1.78119 0
72.8416 -0.0142573 0
75.1169 -0.189694 0
76.1209 -0.784076 0
77.0378 -0.759609 0
74.665 0.00353463 0
75.5565 0.00339845 0
76.4492 -0.495687 0
75.7384 -1.49249 0
75.2779 -0.0975456 0
68.2438 -1.19843 0
67.9805 -0.494663 0
67.825 0.952862 0
68.2118 0.738823 0
67.7797 0.978898 0
67.7747 0.423061 0
67.7707 -0.216089 0
67.8008 -1.08816 0
74.4735 0.584692 0
75.4849 1.08649 0
74.4273 -0.698048 0
74.6469 -0.0966293 0
66.1293 -0.902813 0
67.7739 -0.28565 0
67.3066 -0.549299 0
67.7497 -0.631035 0
67.7616 0.318635 0
67.6188 0.964334 0
76.8251 0.54837 0
75.6249 0.165474 0
75.0648 -0.0080874 0
74.5191 -0.318472 0
69.5521 -0.0278024 0
69.1997 -2.07455 0
69.5826 1.3027 0
68.8909 0.343052 0
67.2301 2.96693 0
66.6407 5.11976 0
66.8571 -4.5303 0
67.7428 -2.56005 0
68.0599 -1.7229 0
67.2737 -1.83179 0
67.2299 3.37647 0
67.6174 1.66526 0
75.3151 -0.137569 0
75.2007 -0.0104807 0
75.4856 -0.0555025 0
76.2444 -0.347432 0
68.5309 -3.84495 0
69.1618 -3.6719 0
68.7523 3.31452 0
68.987 5.95134 0
68.1496 -3.01565 0
68.8414 -1.77521 0
68.5289 2.31641 0
68.2095 1.20899 0
76.2097 1.99878 0
75.1368 0.212015 0
74.9946 -0.00706657 0
75.4289 0.635673 0
67.1503 0.671106 0
67.7665 0.0264939 0
75.0933 -0.0983924 0
75.3091 -0.673854 0
76.0189 0.0753002 0
75.5624 0.0239544 0
68.1454 -0.786674 0
67.8991 -1.13459 0
68.1779 1.36244 0
67.8655 0.703982 0
67.8139 -0.292403 0
67.8504 -0.840334 0
67.7758 0.52986 0
67.76 0.235771 0
64.6826 1.17754 0
66.851 1.04318 0
72.7304 -2.00761 0
75.0421 -3.83663 0
75.7455 3.97839 0
72.6047 1.55467 0
66.7916 -1.88021 0
65.2085 -2.26879 0
74.5266 0.229752 0
74.4219 1.61339 0
74.4305 0.051606 0
74.0816 1.02601 0
76.2959 -0.0200243 0
75.4767 -0.034303 0
76.3889 -1.21069 0
75.5259 -0.0205668 0
75.0031 -0.067268 0
74.9702 -0.05763 0
75.5743 0.485127 0
75.2521 0.0104635 0
67.7803 0.253355 0
67.493 0.516047 0
66.4941 0.220583 0
64.8851 0.500896 0
67.6751 -0.403989 0
67.7413 -0.303389 0
67.2156 0.119017 0
67.186 -0.726934 0
76.1107 -1.31471 0
74.3639 -1.06522 0
75.5215 1.33435 0
77.2709 0.430418 0
67.7988 -0.0973492 0
67.876 -0.491297 0
67.7574 0.0952163 0
67.9114 0.245674 0
75.2501 0.00992301 0
75.5401 0.0960526 0
75.0157 0.580154 0
74.6204 0.182429 0
74.6079 0.0398619 0
74.5264 -0.0097379 0
75.6626 -1.96431 0
75.3003 -0.398824 0
68.0057 -0.796414 0
68.4154 -1.73912 0
67.9776 1.2488 0
67.8449 0.975721 0
68.1028 2.21478 0
67.2591 1.32038 0
67.706 -1.57542 0
68.0191 -2.247 0
75.6081 -0.503076 0
76.2836 -0.505345 0
76.1076 -1.39167 0
76.0419 -0.104612 0
67.4686 -1.09367 0
67.5359 -1.24172 0
67.5303 0.945139 0
67.128 0.897202 0
74.8484 -0.234221 0
74.8172 0.0211252 0
74.6539 -0.337937 0
74.8595 -1.66709 0
71.6171 2.98513 0
73.079 4.92464 0
72.7603 -5.40691 0
72.217 -2.15486 0
65.6019 -2.65866 0
67.1961 -2.76706 0
71.36 -2.03558 0
71.6495 -0.728913 0
70.6754 0.346314 0
72.7818 2.13562 0
65.1737 3.30304 0
66.5989 1.98888 0
75.5059 -0.0372757 0
76.1226 -0.23391 0
74.4229 0.523617 0
74.414 0.112935 0
73.8491 -0.236379 0
73.6902 -0.931829 0
74.3293 1.33082 0
73.5995 0.191047 0
70.3045 1.02174 0
69.2686 0.263428 0
69.979 -0.233405 0
70.3798 -2.10841 0
76.0449 0.0889034 0
76.6592 0.353827 0
74.878 -0.958026 0
75.5248 -0.494347 0
69.8824 -2.65107 0
70.4177 -1.24489 0
69.9111 1.9344 0
71.6196 4.19973 0
75.0756 0.131633 0
74.751 0.0439887 0
74.2838 -0.335803 0
73.6643 -1.04696 0
75.4654 -0.442212 0
75.4855 -0.0193131 0
74.369 0.073636 0
74.5088 0.0689164 0
68.5307 0.387047 0
68.4145 1.02239 0
68.6803 -0.929505 0
69.0907 -0.249802 0
69.355 2.05439 0
68.5115 1.52432 0
68.2438 -2.25182 0
67.8117 -2.30578 0
75.1197 -0.356076 0
74.9393 -0.197423 0
74.9664 0.152894 0
75.6064 0.115906 0
68.3952 2.81681 0
68.7313 1.92899 0
68.3181 -0.685945 0
68.2514 -0.246626 0
68.1319 0.203362 0
68.3938 0.701249 0
66.6114 -0.811791 0
67.3323 -1.18737 0
75.9298 -1.9365 0
74.4409 -1.22099 0
74.4046 2.53751 0
76.7834 2.39641 0
67.7002 -1.08531 0
67.8237 -0.253565 0
67.6946 0.331339 0
67.7075 0.945446 0
67.9006 0.100648 0
67.8669 0.560425 0
67.9962 -0.329969 0
68.0637 -0.0185128 0
65.8191 -0.346911 0
63.9801 -0.00532161 0
71.5419 2.28198 0
74.3586 2.01651 0
73.2148 -1.56488 0
73.7126 -3.08291 0
67.2632 1.48598 0
66.9956 0.750436 0
67.7898 -0.0521364 0
67.5165 -0.145168 0
68.7847 4.80123 0
67.5144 3.00281 0
68.7154 -3.1315 0
68.0692 -5.61227 0
67.1958 0.5692 0
67.6453 0.512351 0
75.6566 0.669277 0
76.4554 1.62454 0
74.9658 0.432618 0
75.0082 -0.0510134 0
74.6719 -0.403921 0
75.0958 -0.222318 0
74.5842 0.010339 0
74.9222 -0.0690232 0
76.9878 -0.70594 0
76.2115 0.556263 0
75.8023 -0.553803 0
76.0685 -0.686727 0
67.3336 -0.0103382 0
66.8291 -1.46558 0