# vtk DataFile Version 3.0
Unstructured Grid for Triangles
ASCII
DATASET UNSTRUCTURED_GRID
POINTS 29612 DOUBLE
-0.000272397 1.23686e-05 0
-0.000295789 9.5838e-06 0
-0.000277865 -3.1235e-06 0
0.002024 0.0005 0
0.00203975 0.00049875 0
0.00205 0.0005 0
0.00203975 -0.00049875 0
0.002024 -0.0005 0
0.00205 -0.0005 0
0.0020295 0.0004975 0
0.0020295 -0.0004975 0
0.00201925 0.00049625 0
0.00201925 -0.00049625 0
-0.000529747 -0.000479887 0
-0.00055 -0.0005 0
-0.000524 -0.0005 0
-0.000505983 -0.000484325 0
-0.000498 -0.0005 0
-0.000472 -0.0005 0
-0.000483864 -0.000487761 0
-0.000446 -0.0005 0
-0.000459 -0.000484239 0
-0.000429453 -0.000424878 0
-0.000447486 -0.000420717 0
-0.000441829 -0.000436609 0
-0.000512578 -0.000462101 0
-0.000493078 -0.000453594 0
-0.00050706 -0.000439006 0
-0.000419243 -0.000477545 0
-0.000440307 -0.000471837 0
-0.00043691 -0.000486724 0
-0.000516129 -0.000420948 0
-0.000495355 -0.000415432 0
-0.000511646 -0.00040128 0
-0.000394697 -0.000481197 0
-0.000406302 -0.000455143 0
-0.000537257 -0.000388197 0
-0.000531099 -0.000407297 0
-0.000523982 -0.000388328 0
-0.000370063 -0.000472956 0
-0.000368 -0.0005 0
-0.00035308 -0.000485302 0
-0.0005072 -0.00037867 0
-0.000485506 -0.000383975 0
-0.000490949 -0.000359622 0
-0.000337127 -0.000484331 0
-0.000316 -0.0005 0
-0.000326495 -0.00047415 0
-0.00055 -0.00035 0
-0.000531201 -0.000370361 0
-0.000528367 -0.000346817 0
-0.000363898 -0.000448809 0
-0.000383315 -0.000460336 0
-3.26269e-05 -0.000415503 0
-5.99662e-05 -0.000409556 0
-5.46944e-05 -0.000429488 0
-0.000529747 0.000479887 0
-0.00055 0.0005 0
-0.00055 0.000475 0
-0.00055 0.00045 0
-0.000534834 0.000429171 0
-0.000526943 0.000442611 0
-0.000534026 0.000460176 0
-0.000531099 0.000407297 0
-0.000511672 0.000401178 0
-0.000516129 0.000420948 0
-0.000524 0.0005 0
-0.000505983 0.000484325 0
-0.000531201 0.000370361 0
-0.0005072 0.00037867 0
-0.000523982 0.000388328 0
-0.00048341 0.000469132 0
-0.000483679 0.000487539 0
-0.000528367 0.000346817 0
-0.00055 0.000325 0
-0.000525657 0.000328474 0
-0.000498 0.0005 0
-0.000530382 0.0003125 0
-0.000419243 0.000477545 0
-0.000440015 0.00047335 0
-0.000425917 0.000463678 0
-0.000435138 0.000262661 0
-0.000414982 0.000274462 0
-0.000435654 0.000285217 0
-0.000459 0.000484239 0
-0.000436852 0.000487027 0
-0.000446 0.0005 0
-0.000533308 0.000292503 0
-0.00055 0.000275 0
-0.000523377 0.000276953 0
-0.000425282 0.000446352 0
-0.000409368 0.000435728 0
-0.000406302 0.000455143 0
0.002009 0.000495 0
0.001998 0.0005 0
0.00199875 0.00049375 0
0.0019885 0.0004925 0
0.001972 0.0005 0
0.00197825 0.00049125 0
0.001968 0.00049 0
0.00195775 0.00048875 0
0.001946 0.0005 0
0.0019475 0.0004875 0
0.00193725 0.00048625 0
0.00192 0.0005 0
0.001927 0.000485 0
0.00191675 0.00048375 0
0.0019065 0.0004825 0
0.001894 0.0005 0
0.00189625 0.00048125 0
0.001886 0.00048 0
0.001868 0.0005 0
0.00187575 0.00047875 0
0.0018655 0.0004775 0
0.00185515 0.00048575 0
0.001842 0.0005 0
0.001845 0.000475 0
0.00185525 0.00047625 0
0.00182564 0.0004829 0
0.001816 0.0005 0
0.0018245 0.0004725 0
0.00183475 0.00047375 0
0.00181425 0.00047125 0
0.00180295 0.000482657 0
0.00179 0.0005 0
0.00179375 0.00046875 0
0.001804 0.00047 0
0.00178168 0.000480619 0
0.001764 0.0005 0
0.00177325 0.00046625 0
0.0017835 0.0004675 0
0.00176428 0.000476631 0
0.001763 0.000465 0
0.001738 0.0005 0
0.001751 0.000484164 0
0.00175275 0.00046375 0
0.00174025 0.000475632 0
0.001712 0.0005 0
0.00172615 0.000478449 0
0.001722 0.00046 0
0.00173225 0.00046125 0
0.0017015 0.0004575 0
0.00171243 0.00047381 0
0.00169554 0.000479999 0
0.001686 0.0005 0
0.00167507 0.000479751 0
0.00168498 0.000464861 0
0.00166 0.0005 0
0.0016558 0.000471459 0
0.00167135 0.000462887 0
0.001681 0.000455 0
0.0016605 0.0004525 0
0.00167075 0.00045375 0
0.00164059 0.000461599 0
0.0016394 0.000479551 0
0.00162881 0.00046615 0
0.00162975 0.00044875 0
0.00165025 0.00045125 0
0.00164 0.00045 0
0.00161754 0.000458641 0
0.00161722 0.000478101 0
0.00159956 0.000458294 0
0.00160925 0.00044625 0
0.0016195 0.0004475 0
0.00157667 0.000460322 0
0.00158875 0.00044375 0
0.00159194 0.000480155 0
0.001599 0.000445 0
0.0015785 0.0004425 0
0.00155808 0.000456757 0
0.00155647 0.000476701 0
0.00154059 0.000466642 0
0.00153756 0.000450083 0
0.00154839 0.000450446 0
0.00156825 0.00044125 0
0.00151954 0.000480508 0
0.00154052 0.00048477 0
0.00153 0.0005 0
0.00154775 0.00043875 0
0.00152142 0.000456625 0
0.00152821 0.000445753 0
0.0015375 0.0004375 0
0.001504 0.0005 0
0.00149644 0.000485168 0
0.00151787 0.000443178 0
0.00152725 0.00043625 0
0.00150675 0.00043375 0
0.001517 0.000435 0
0.00148119 0.000450887 0
0.00148072 0.000475756 0
0.00146584 0.000463516 0
0.00150008 0.00046396 0
0.00149351 0.00044543 0
0.0015061 0.000446252 0
0.001476 0.00043 0
0.00148625 0.00043125 0
0.00146492 0.000482975 0
0.00144888 0.000473562 0
0.00146676 0.000444259 0
0.00145255 0.000453656 0
0.00145652 0.000438669 0
0.00141401 0.000479821 0
0.001426 0.0005 0
0.0014 0.0005 0
0.00144374 0.000438862 0
0.0014555 0.0004275 0
0.001435 0.000425 0
0.00144525 0.00042625 0
0.00142746 0.000438121 0
0.00141288 0.000443191 0
0.00141707 0.000432778 0
0.0013921 0.000438992 0
0.00140355 0.00045932 0
0.00138302 0.00045922 0
0.00142912 0.000458869 0
0.00140592 0.000430037 0
0.0014145 0.0004225 0
0.00136458 0.00045869 0
0.00137106 0.00044063 0
0.001394 0.00042 0
0.00138259 0.000428915 0
0.00137484 0.000477094 0
0.00139166 0.000478902 0
0.0013586 0.000478984 0
0.00133449 0.000478649 0
0.00134717 0.000461848 0
0.00137256 0.000425134 0
0.00135323 0.000424541 0
0.00136325 0.00041625 0
0.00136122 0.00042876 0
0.00131206 0.000447284 0
0.00133168 0.000456738 0
0.00131773 0.000465243 0
0.00134756 0.000440343 0
0.00132747 0.000436463 0
0.00133483 0.000426786 0
0.00131081 0.00041867 0
0.00132382 0.000422815 0
0.00131507 0.00043122 0
0.00131059 0.000480123 0
0.0013325 0.0004125 0
0.0012915 0.0004075 0
0.0012982 0.000418199 0
0.00128915 0.000426216 0
0.00126366 0.000447574 0
0.00127331 0.000430908 0
0.00128781 0.000444872 0
0.00125336 0.000428376 0
0.00130218 0.000431077 0
0.00127894 0.000416344 0
0.00124774 0.000469608 0
0.00127668 0.000464148 0
0.00126591 0.00048331 0
0.00126722 0.000418415 0
0.00125768 0.000411931 0
0.00124326 0.000413546 0
0.0012505 0.0004025 0
0.00122408 0.000450118 0
0.00120276 0.000447432 0
0.0012139 0.000432235 0
0.00124336 0.000444132 0
0.00123056 0.000427595 0
0.00122977 0.000409049 0
0.0012185 0.000469217 0
0.00122676 0.000485947 0
0.00120525 0.000486094 0
0.00121479 0.000413153 0
0.00119547 0.000424221 0
0.00120249 0.000407448 0
0.00119925 0.00039625 0
0.00119346 0.000406114 0
0.00117479 0.000447279 0
0.00114726 0.000445259 0
0.0011571 0.000427814 0
0.00119443 0.000466611 0
0.00117447 0.000421596 0
0.00118421 0.00040752 0
0.00117409 0.000404437 0
0.00116775 0.000470073 0
0.001179 0.0004855 0
0.00115473 0.000484802 0
0.0011685 0.0003925 0
0.00117875 0.00039375 0
0.00115454 0.000400551 0
0.001148 0.00039 0
0.00115825 0.00039125 0
0.00111703 0.000423398 0
0.00113786 0.000426731 0
0.00112589 0.000443871 0
0.00113234 0.000406671 0
0.00114754 0.000413371 0
0.001106 0.000442326 0
0.00109703 0.000424261 0
0.0011275 0.0003875 0
0.00113775 0.00038875 0
0.00110211 0.000480875 0
0.00108244 0.000471951 0
0.00109312 0.000458413 0
0.00111755 0.000399116 0
0.0010944 0.000392972 0
0.00110415 0.000405876 0
0.00108839 0.000407536 0
0.00106472 0.000476905 0
0.00107274 0.000457868 0
0.00108011 0.000392415 0
0.00106885 0.000404365 0
0.00106625 0.000388708 0
0.00105286 0.000419254 0
0.00105055 0.000395469 0
0.00104215 0.000439764 0
0.00106346 0.000440629 0
0.00100945 0.000451249 0
0.00102825 0.00045614 0
0.00101189 0.000468452 0
0.00107625 0.00038125 0
0.00105575 0.00037875 0
0.001066 0.00038 0
0.00103352 0.000476905 0
0.00101803 0.00048465 0
0.00103685 0.000389398 0
0.0010245 0.00038825 0
0.00103525 0.00037625 0
0.00101092 0.000399779 0
0.00101267 0.000382619 0
0.00101382 0.00042025 0
0.00103187 0.000405286 0
0.00103359 0.000424605 0
0.000987383 0.00045447 0
0.000999411 0.000435161 0
0.0009744 0.000433145 0
0.0010045 0.0003725 0
0.00101475 0.00037375 0
0.000970845 0.000465215 0
0.000952614 0.000467664 0
0.000961768 0.000449944 0
0.00099729 0.000387704 0
0.000978901 0.00039598 0
0.000985823 0.000381492 0
0.000962289 0.000393709 0
0.000974259 0.000381279 0
0.00097375 0.00036875 0
0.000963045 0.000376631 0
0.000958 0.0005 0
0.000932 0.0005 0
0.000947542 0.00048457 0
0.000949675 0.000385245 0
0.000936214 0.000389472 0
0.000940006 0.000374906 0
0.000966411 0.000412573 0
0.000944241 0.000407079 0
0.000903569 0.000424993 0
0.000921701 0.000402409 0
0.000927439 0.000427744 0
0.000889795 0.000409067 0
0.000903071 0.00040248 0
0.000925447 0.000377721 0
0.00093275 0.00036375 0
0.000907708 0.000387127 0
0.000911303 0.000370839 0
0.000911933 0.000455145 0
0.000930678 0.000473279 0
0.000911886 0.000482603 0
0.000887724 0.000388076 0
0.000899595 0.000375116 0
0.000902 0.00036 0
0.000889241 0.00036954 0
0.000836977 0.000459472 0
0.000836223 0.000483578 0
0.000820467 0.000474142 0
0.000871227 0.000403557 0
0.000861 0.000355 0
0.000868368 0.000365714 0
0.00085484 0.00036588 0
0.000847735 0.000402845 0
0.000823121 0.000421599 0
0.000826582 0.000398147 0
0.000846943 0.00042454 0
0.000838832 0.000378613 0
0.000835569 0.000363808 0
0.000844098 0.00036291 0
0.00085075 0.00035375 0
0.000851465 0.000477164 0
0.00083025 0.00035125 0
0.000822824 0.000368659 0
0.00081446 0.000357362 0
0.000805884 0.000371794 0
0.000753471 0.000477524 0
0.000738313 0.000473927 0
0.000739102 0.000461526 0
0.00079826 0.000358588 0
0.000788607 0.000376287 0
0.000781733 0.000357987 0
0.000816783 0.000384471 0
0.000807975 0.000404095 0
0.000752138 0.000404775 0
0.000767682 0.000417043 0
0.000749617 0.000421803 0
0.000752903 0.000384008 0
0.000738293 0.000393136 0
0.000772614 0.000394048 0
0.00076863 0.000371878 0
0.000765995 0.000354121 0
0.000779 0.000345 0
0.00071811 0.000453059 0
0.000738069 0.000437967 0
0.000752085 0.000365972 0
0.000728123 0.000374583 0
0.000741845 0.000354664 0
[...]
CELL_DATA 58684
VECTORS velocity DOUBLE
65.1982 0.0438359 0
70.3304 9.10517e-06 0
70.3667 0.000186982 0
70.3309 0.000669021 0
70.3984 0.00164526 0
70.3314 0.000950615 0
70.4282 0.0131347 0
67.8448 0.00395092 0
67.8717 -0.0157283 0
67.9837 0.00391992 0
68.0577 0.00386531 0
68.0828 -0.120543 0
67.9159 -0.0295036 0
68.1279 -0.0423804 0
67.8951 -0.0616975 0
68.2364 -0.071105 0
67.8347 -0.0942363 0
68.4863 -0.0960889 0
67.9073 -0.079078 0
68.844 -0.0690066 0
67.8185 -0.105624 0
68.4639 -0.227068 0
72.6846 -1.25936 0
67.8053 0.0140553 0
67.832 0.0366325 0
67.8026 0.0229826 0
67.886 0.0778746 0
67.8823 0.0147893 0
67.8527 0.0976495 0
67.9937 0.00939386 0
67.8177 0.112051 0
67.9632 0.0111513 0
67.8131 0.114359 0
68.1845 0.0348971 0
67.927 0.376712 0
68.1232 0.014491 0
67.8058 0.138762 0
68.2386 0.114232 0
70.3316 0.00130839 0
70.3319 0.000941445 0
70.3336 0.00250842 0
70.3349 0.0031481 0
70.3382 0.00201231 0
70.3406 0.0039698 0
70.3445 0.00548149 0
70.3484 0.0069006 0
70.3535 0.00385179 0
70.3589 0.00703928 0
70.3634 0.00818838 0
70.3729 0.00535478 0
70.3802 0.00776088 0
70.388 0.00849314 0
70.3944 0.0101463 0
70.4069 0.00735189 0
70.4194 0.0070578 0
70.4261 0.00855043 0
70.4431 0.00818764 0
70.4599 0.00484133 0
70.4696 0.00445467 0
70.4811 0.00684911 0
70.4999 0.00676508 0
70.5069 -0.000663899 0
70.5368 0.00278465 0
70.5647 0.0059129 0
70.5715 -0.0035945 0
70.5797 -0.00257335 0
70.6001 0.00144793 0
70.6266 0.00624303 0
70.6378 -0.0140412 0
70.6611 -0.00454373 0
70.693 0.00583875 0
70.7067 -0.0263857 0
70.7278 -0.0159559 0
70.7646 -0.0455551 0
70.7904 0.00585224 0
70.8149 -0.0366819 0
70.8347 -0.0275965 0
70.8878 0.00456222 0
70.9083 -0.064604 0
71.0075 -0.047945 0
70.9263 -0.0515441 0
71.0112 0.00294551 0
71.0568 -0.0481628 0
71.0313 -0.0748341 0
71.1736 -0.0566201 0
71.1397 -0.0657088 0
71.1375 -0.0866141 0
71.1979 -0.119081 0
71.3072 -0.0742216 0
71.3814 -0.103964 0
71.2613 -0.0880148 0
71.3441 -0.136088 0
71.4263 -0.107122 0
71.413 -0.110373 0
71.4634 -0.14441 0
71.6097 -0.124807 0
71.5185 -0.121172 0
71.5716 -0.15108 0
71.6543 -0.168532 0
71.6762 -0.126351 0
71.7902 -0.121595 0
71.694 -0.123681 0
71.8075 -0.0394961 0
71.813 -0.12723 0
71.8965 -0.115569 0
71.8653 -0.128615 0
71.9007 -0.0320494 0
71.9169 -0.115961 0
71.9802 -0.123721 0
72.0326 -0.0322965 0
72.0155 -0.0556906 0
71.9707 -0.0901946 0
72.09 -0.0816698 0
72.0705 -0.0126622 0
72.1645 -0.0495089 0
72.117 -0.0262211 0
72.1749 0.00693928 0
72.2019 -0.0311772 0
72.2339 -0.0174956 0
72.2891 0.00797823 0
72.286 0.0320123 0
72.2014 0.00258107 0
72.3078 0.0343229 0
72.3076 0.0422957 0
72.3446 0.0609766 0
72.2623 0.0265716 0
72.3518 0.0565133 0
72.3095 0.0291234 0
72.3505 0.0692587 0
72.3697 0.103993 0
72.3434 0.0489936 0
72.368 0.0888276 0
72.3284 0.0434912 0
72.3754 0.104311 0
72.3256 0.0261791 0
72.3843 0.115723 0
72.3749 0.0952539 0
72.3888 0.0374464 0
72.4048 0.0230829 0
72.3776 0.0701007 0
72.3726 0.0660191 0
72.3816 0.00410483 0
72.3772 0.0327273 0
72.3779 0.0119498 0
72.4669 -0.103302 0
72.4254 -0.0339528 0
72.3865 -0.020935 0
72.4072 -0.0433673 0
72.4489 -0.0273162 0
72.4404 -0.163694 0
72.432 -0.221665 0
72.6419 -0.262181 0
72.5791 -0.153158 0
72.4645 -0.265658 0
72.4936 -0.315374 0
72.5894 -0.0674341 0
72.4958 -0.383965 0
72.6095 -0.529362 0
72.8352 -0.488997 0
72.6579 -0.515911 0
72.9598 -0.606577 0
72.6868 -0.691015 0
73.0095 -0.238931 0
72.6925 -0.692387 0
72.8907 -0.84218 0
73.1841 -0.292316 0
73.1307 -1.10844 0
73.2797 -1.04441 0
73.3597 -0.670254 0
73.7084 -0.528475 0
73.1021 -1.13512 0
73.2382 -1.29131 0
73.6362 -0.26009 0
73.4922 -1.37882 0
73.745 -1.4343 0
73.4879 -1.02542 0
73.9611 -0.609067 0
74.0735 -0.798857 0
73.8331 -1.64714 0
74.2057 -0.482531 0
74.1244 -1.499 0
74.2185 -1.4294 0
74.2868 -1.69256 0
74.2916 -0.0192527 0
74.7048 -1.50575 0
74.2603 -1.20698 0
74.6908 -0.876311 0
74.8676 -0.898516 0
74.8841 -1.61332 0
75.0906 -1.50807 0
74.6045 -0.307225 0
75.1703 -1.26027 0
75.243 -1.4521 0
75.2732 -1.36507 0
74.9995 -0.127483 0
75.1396 -0.931487 0
75.7488 -1.13023 0
75.3896 -0.558648 0
75.3071 -0.48872 0
75.6795 -0.850697 0
75.8193 -1.01673 0
75.0155 -0.152483 0
75.8641 -0.665046 0
75.9013 -0.554787 0
75.0179 0.0117935 0
75.7954 -0.161055 0
75.5943 -0.445058 0
75.3406 0.0413323 0
75.4229 0.230221 0
75.6306 -0.0388208 0
75.952 0.0510066 0
75.0785 0.0910269 0
75.682 0.347534 0
75.8044 0.397744 0
75.5087 0.665666 0
74.8796 0.00608745 0
75.3277 0.489017 0
75.4803 0.799259 0
74.9781 0.104249 0
75.3963 0.899525 0
74.9896 0.31185 0
75.2983 0.974317 0
74.8599 0.0996217 0
74.9674 0.65819 0
75.0756 0.932193 0
74.8519 0.0580437 0
74.7714 0.912179 0
74.6045 0.574141 0
74.8684 0.514042 0
74.8322 0.139838 0
74.4918 0.686918 0
74.9065 -0.0085155 0
75.1544 -0.0258659 0
74.7267 0.368338 0
74.3881 0.412912 0
74.325 0.458629 0
75.0908 -0.152561 0
74.5822 -0.0681857 0
74.4748 -0.262563 0
75.3294 -0.0785559 0
74.7186 -0.6301 0
74.4512 -0.486284 0
74.9648 -0.399929 0
75.4069 -0.334241 0
75.4301 -0.466828 0
74.6771 -0.909227 0
75.8699 -0.00141486 0
74.8259 -1.1421 0
75.0299 -1.29148 0
74.9537 -1.32715 0
76.1454 -0.430461 0
75.6233 -1.33273 0
75.8251 -1.56194 0
76.3067 -0.00520455 0
75.9285 -1.95868 0
76.5395 -1.86033 0
76.1733 -1.11306 0
76.3321 -0.535569 0
76.3363 -2.06034 0
76.5121 -0.681061 0
76.6539 -0.0780322 0
76.5396 -1.47776 0
76.859 -2.011 0
77.2174 -1.92799 0
76.8064 -0.305182 0
77.4164 -1.4461 0
77.3822 -1.80216 0
76.7867 -0.117348 0
77.6083 -1.82715 0
77.9098 -1.5929 0
77.6685 -0.85716 0
76.6115 -0.00688213 0
78.121 -1.24072 0
77.3974 -0.276475 0
77.6307 -0.215984 0
78.0281 -1.03669 0
77.8361 -0.671022 0
78.4505 -0.686942 0
76.7029 0.0609008 0
78.4146 -0.813046 0
78.0004 -0.187911 0
78.4162 -0.0591117 0
76.6602 0.00405764 0
78.2663 0.540479 0
78.0573 0.688378 0
75.4677 0.0964341 0
78.3978 0.314152 0
78.2818 0.640738 0
76.496 0.765071 0
76.3536 0.31012 0
77.6066 0.423574 0
78.1412 1.0303 0
75.7014 0.183031 0
77.6906 1.62085 0
78.0068 1.23026 0
77.9919 1.36733 0
74.974 0.812547 0
76.8608 1.7269 0
77.5365 1.86508 0
75.029 0.119621 0
77.3865 2.19372 0
77.3326 2.11291 0
76.4702 3.08807 0
73.3195 0.208928 0
77.1459 2.88611 0
75.8951 2.07167 0
74.5687 0.90466 0
74.3026 1.77147 0
76.9882 3.13725 0
76.3244 3.50673 0
73.6953 0.351391 0
76.1955 3.97442 0
70.4436 0.00313169 0
70.4591 -0.000571629 0
70.4995 0.0162155 0
70.5043 0.0127784 0
70.5299 -0.00134213 0
70.577 0.0173395 0
70.5843 0.020667 0
70.5951 0.0109513 0
70.623 -0.00258548 0
70.6589 0.0240118 0
70.6643 0.0147167 0
70.6902 -0.00356143 0
70.7333 0.022955 0
70.7408 0.0219697 0
70.7512 0.00969212 0
70.7786 -0.00502874 0
70.8108 0.0232787 0
70.8173 0.0137669 0
70.8443 -0.00541193 0
70.8844 0.0243109 0
70.892 0.019089 0
70.9323 0.0191361 0
70.9048 0.00423582 0
70.9556 0.00560174 0
71.0022 0.00354872 0
70.9715 -0.0016542 0
71.0173 -0.00777352 0
71.0326 -0.0108077 0
71.0453 -0.0105221 0
71.0176 0.000413242 0
71.0653 -0.0177339 0
71.0733 -0.0222304 0
71.06 -0.00504236 0
71.0933 -0.0337958 0
71.0994 -0.0382053 0
71.1032 -0.030244 0
71.0894 -0.0147352 0
71.112 -0.0366459 0
71.1203 -0.0403734 0
71.1089 -0.0217904 0
71.126 -0.0692193 0
71.1284 -0.0338067 0
71.129 -0.0522487 0
71.119 -0.0352121 0
71.1355 -0.0698062 0
71.1248 -0.0808646 0
71.1136 -0.0413029 0
71.1244 -0.0704697 0
71.1173 -0.0815648 0
71.122 -0.0892227 0
71.1127 -0.045941 0
71.1191 -0.0618052 0
71.1133 -0.0766991 0
71.1148 -0.094964 0
71.1145 -0.0423507 0
71.1171 -0.0743033 0
71.1187 -0.0826027 0
71.1352 -0.02508 0
71.1228 -0.049516 0
71.1329 -0.0658124 0
71.1389 -0.0558052 0
71.1529 -0.0212396 0
71.1579 -0.0122033 0
71.1802 -0.00980171 0
71.1246 -0.0171444 0
71.2032 -0.000899693 0
71.2578 0.0446089 0
71.2307 0.0204287 0
71.2059 0.004968 0
71.2892 0.072399 0
71.3065 0.0631593 0
71.4208 0.0743741 0
71.2833 0.0670504 0
71.3793 0.124563 0
71.4305 0.16527 0
71.3304 0.0260163 0
71.4344 0.127375 0
71.5529 0.242029 0
71.484 0.105206 0
71.597 0.213995 0
71.736 0.331035 0
71.6814 0.236789 0
71.8718 0.100829 0
71.8083 0.318161 0
71.8779 0.357923 0
71.9824 0.107044 0
72.003 0.438444 0
71.9027 0.317158 0
72.1635 0.377656 0
72.0034 0.241502 0
72.2061 0.52742 0
72.5443 0.673054 0
72.5164 0.158928 0
72.3992 0.450308 0
72.7154 0.716368 0
72.6436 0.507293 0
72.4294 0.203088 0
72.8109 0.656544 0
72.9392 0.694642 0
72.9064 0.155297 0
73.0999 0.286106 0
73.1439 0.578015 0
73.2201 0.786488 0
72.9642 0.42916 0
73.3843 0.714986 0
73.4898 0.75552 0
73.6093 0.214279 0
73.4566 0.436118 0
73.7189 0.767826 0
73.7305 0.632925 0
73.3594 0.225237 0
73.802 0.6699 0
74.0001 0.637022 0
73.8909 0.222049 0
73.8909 0.577536 0
74.1939 0.672462 0
74.1562 0.457623 0
73.7347 0.201039 0
74.2661 0.534343 0
74.3794 0.473635 0
74.0287 0.172955 0
74.331 0.30415 0
74.126 0.140883 0
74.3554 0.238186 0
74.1016 0.201189 0
74.4455 0.337216 0
74.4526 0.155171 0
74.1248 0.0514805 0
74.4215 0.151933 0
74.3885 0.0221005 0
74.0531 0.0074587 0
74.3659 0.167608 0
74.3196 -0.00716854 0
74.3381 -0.0584552 0
74.0608 0.00751987 0
74.2794 -0.0741111 0
74.1468 -0.199019 0
74.1024 -0.143042 0
73.9085 -0.0147867 0
73.947 -0.15817 0
73.9901 -0.0168725 0
74.2214 -0.0697897 0
74.0137 -0.199135 0
73.8346 -0.213979 0
73.8157 -0.202651 0
73.9243 0.00892996 0
73.6375 -0.178519 0
73.6066 -0.118054 0
73.5611 0.0384716 0
73.5818 0.0685481 0
73.5295 0.131982 0
73.5371 -0.0239947 0
73.7115 -0.00734188 0
73.3816 0.154598 0
73.4017 0.146858 0
73.452 0.247019 0
73.5488 0.0916545 0
73.3253 0.402454 0
73.3472 0.591012 0
73.5268 0.275547 0
73.5081 0.231407 0
73.427 0.55978 0
73.4059 0.8875 0
73.5091 0.11154 0
73.4959 0.975789 0
73.5172 1.05857 0
73.6903 0.196914 0
73.8186 1.41174 0
73.8654 1.37122 0
74.1094 1.20799 0
73.9227 0.465483 0
73.8337 0.510904 0
73.8321 1.36095 0
73.7603 0.307713 0
74.2331 1.73468 0
74.3577 1.61386 0
74.402 1.46295 0
74.0852 0.190062 0
74.8559 1.73967 0
74.8882 1.78452 0
74.578 0.866087 0
75.1733 1.20555 0
74.695 0.67805 0
75.0737 1.61973 0
74.4636 0.420008 0
75.5207 1.79256 0
75.5943 1.65102 0
74.5345 0.334481 0
75.7169 1.32416 0
76.259 1.34733 0
75.9797 1.43516 0
75.4844 0.266697 0
76.7019 1.09071 0
76.7466 1.11182 0
75.5174 0.945691 0
76.2423 0.663365 0
75.5838 0.479042 0
76.9461 0.811833 0
75.751 0.102171 0
76.991 0.532497 0
76.9034 0.381849 0
75.4692 0.0907158 0
76.7266 0.346516 0
77.0626 -0.0107179 0
77.0348 -0.122613 0
76.2599 0.0814944 0
77.0108 -0.244794 0
76.9441 -0.384655 0
76.5249 0.259475 0
76.785 -0.168977 0
76.3727 0.0337977 0
76.8297 -0.499841 0
76.334 0.0130574 0
76.7339 -0.507694 0
76.659 -0.496089 0
76.1829 0.0168718 0
76.735 -0.336301 0
76.4645 -0.389357 0
76.3564 -0.301734 0
76.5154 -0.0186066 0
76.4718 -0.274635 0
76.3346 -0.13237 0
76.6675 -0.226603 0
76.5738 0.039683 0
76.5113 -0.0116792 0
76.4797 -0.152946 0
76.4765 0.00210261 0
76.3196 0.0934832 0
76.3113 0.222616 0
76.4406 5.10025e-05 0
76.5696 0.28146 0
76.4244 0.477428 0
76.5531 0.60802 0
76.3716 -0.00125616 0
76.6916 0.755972 0
76.7456 0.670865 0
76.3664 0.0218044 0
76.8545 0.83542 0
76.859 0.257141 0
76.5475 0.0446502 0
76.5043 0.0284605 0
77.0857 0.878235 0
77.1152 0.482907 0
77.4387 0.657549 0
76.2609 0.00800505 0
77.2216 0.158172 0
77.6405 0.241019 0
76.2217 -0.00452336 0
77.0657 0.0980859 0
77.777 -0.16518 0
76.9105 -0.345167 0
76.1629 -0.142777 0
77.7382 -0.466025 0
77.7629 -0.763454 0
76.7379 -0.056347 0
76.6035 -1.2437 0
75.1949 -1.29651 0
77.5388 -0.962607 0
75.3392 -0.146465 0
77.6515 -1.59358 0
75.6716 4.35251 0
76.1075 3.90152 0
72.4955 1.14471 0
75.621 4.30788 0
74.173 4.05672 0
75.0786 4.75151 0
72.9069 0.437293 0
74.5096 4.89937 0
73.8041 4.89538 0
72.0261 0.588788 0
73.789 5.18093 0
77.6079 -1.96065 0
75.5376 -0.0853986 0
77.4794 -2.24677 0
76.6475 -2.69222 0
76.1452 -2.26012 0
74.9185 -0.115437 0
76.8406 -3.12134 0
73.0347 4.82635 0
76.3598 -4.03566 0
74.7906 -0.692723 0
76.1759 -3.91598 0
75.4552 -4.63553 0
71.2792 1.44418 0
75.2346 -4.58531 0
75.9981 -2.18854 0
75.7034 -4.06072 0
74.2654 -2.99424 0
73.3554 -0.472114 0
75.022 -4.19512 0
74.5065 -4.54023 0
72.6307 5.08082 0
74.5301 -4.56525 0
73.9304 -0.230463 0
73.8356 -4.87092 0
73.4146 -5.34896 0
72.912 -0.307697 0
72.6965 -5.53039 0
72.987 -3.95122 0
71.4691 -0.409868 0
72.0587 -5.65766 0
71.9183 -3.11441 0
72.9744 -2.27789 0
72.4406 -4.82477 0
71.6443 -5.15123 0
73.1513 2.62796 0
70.6966 0.31924 0
72.6907 1.77338 0
71.8685 -0.0319169 0
71.344 -5.56784 0
72.4493 4.81607 0
70.5563 0.228214 0
71.9225 4.11296 0
70.7518 -5.56388 0
71.5746 -1.0875 0
70.1591 -4.03885 0
71.964 5.48862 0
69.8455 1.19219 0
71.9395 5.41717 0
70.4673 4.63218 0
70.0234 0.239661 0
70.9863 4.84416 0
70.533 -4.17459 0
71.2622 -0.320965 0
70.1603 -5.70525 0
70.2106 -5.5284 0
71.1982 5.19714 0
69.9292 5.03363 0
69.6095 0.0190867 0
70.6269 5.17773 0
69.2543 3.08809 0
69.6042 1.3454 0
69.5021 -5.6826 0
69.926 -0.701055 0
69.756 -5.5796 0
69.0404 5.28048 0
69.0575 -5.25421 0
69.3646 -0.674026 0
69.159 -2.19748 0
68.292 -5.05912 0
70.1472 -2.66591 0
68.1355 -4.8618 0
69.0582 -0.186488 0
67.4923 -4.70315 0
68.7889 1.67391 0
69.2022 0.256115 0
68.743 4.42162 0
68.8423 0.0596782 0
68.5687 5.20992 0
68.4574 4.89359 0
68.6269 0.10783 0
67.9206 4.23614 0
68.4729 0.0648436 0
68.39 -4.34833 0
69.0611 -0.356858 0
69.1459 3.75028 0
67.7936 0.150103 0
67.7092 3.96755 0
67.4212 -4.7125 0
69.1564 -0.155871 0
66.2353 -4.0187 0
67.762 -0.186411 0
66.7312 -3.98787 0
68.3191 1.50404 0
67.7797 0.116951 0
68.8703 -3.48837 0
67.7914 -0.102038 0
66.3069 -3.78543 0
67.2474 3.5537 0
67.2947 -2.92935 0
67.8055 -0.158531 0
66.5038 -3.24748 0
67.8751 1.852 0
66.3358 1.11726 0
66.8848 3.03558 0
67.5778 -0.45683 0
66.4463 -3.5848 0
67.7552 0.16415 0
66.8325 4.18947 0
67.6728 -1.62301 0
67.7851 -0.0902103 0
66.1956 -3.28372 0
66.7273 3.76891 0
67.7341 0.166584 0
66.5836 2.89554 0
66.434 2.84217 0
67.7036 0.165371 0
65.9041 2.52841 0
65.6154 -2.94056 0
67.7406 -0.184925 0
65.3609 -2.96237 0
66.9162 -1.43487 0
67.7528 -0.164096 0
65.0279 -2.09954 0
65.8909 3.22574 0
67.6422 0.150625 0
66.7371 1.9604 0
65.3765 -1.87335 0
67.6178 -0.152561 0
64.8926 -1.7735 0
65.0682 2.30248 0
67.6083 0.0816021 0
65.3157 2.17982 0
65.5257 1.72098 0
67.7709 0.0234892 0
64.983 1.86779 0
65.7231 -1.17342 0
67.5886 -0.200942 0
65.2005 -1.08839 0
64.4077 -0.763538 0
67.2228 -0.647533 0
64.5731 -0.681102 0
67.0093 0.467975 0
67.6666 0.0391622 0
66.4628 1.40416 0
64.9102 1.43838 0
67.5462 -0.0146046 0
64.4861 0.867713 0
67.3739 -0.174241 0
67.7441 -0.112586 0
64.4555 -0.339929 0
64.7747 -0.224147 0
67.6767 -0.0470185 0
66.3368 0.0204581 0
65.0468 0.165757 0
67.707 -0.0541506 0
67.4254 -3.88406 0
67.8414 -0.137278 0
67.7766 0.131133 0
68.0364 4.37341 0
68.681 -5.24967 0
70.5316 -0.612737 0
69.4938 0.568389 0
70.4225 5.45451 0
67.6968 0.137319 0
65.5538 3.08204 0
65.1075 -2.08898 0
67.7465 -0.159583 0
67.7946 -0.168556 0
67.604 -2.47977 0
67.8743 0.149493 0
67.7808 0.146703 0
67.6614 -0.0112416 0
64.8427 1.22458 0
68.8028 0.267323 0
68.1627 0.815037 0
68.3925 -0.861622 0
69.4052 -0.440928 0
72.9412 -0.701271 0
73.0528 -5.37186 0
74.035 4.90234 0
72.6481 0.259913 0
67.7013 0.8226 0
69.022 5.06365 0
68.3722 -4.80386 0
68.7408 -1.52231 0
67.078 -1.04373 0
65.5692 -0.325306 0
66.7933 3.6963 0
67.9227 1.02052 0
67.7932 -1.09546 0
65.6815 -3.30588 0
77.2951 -2.70309 0
74.6942 -0.324389 0
74.5157 0.442801 0
77.2321 2.63395 0
67.8434 -0.2235 0
67.842 -0.0420708 0
67.8614 0.0770071 0
68.5719 0.416757 0
71.1274 0.424856 0
70.9637 2.52364 0
70.0158 -1.26548 0
71.9785 -1.0572 0
70.2747 3.03674 0
72.2698 5.14381 0
71.7442 -5.64545 0
70.8606 -1.21415 0
73.4597 0.949315 0
74.278 3.04816 0
73.3132 -1.59376 0
73.9757 -0.00277683 0
76.1661 -0.0258383 0
77.5097 0.489815 0
78.3923 -0.0340116 0
75.9475 -0.0085953 0
76.4349 0.00291722 0
76.3437 0.325721 0
77.8498 -1.44305 0
76.865 -0.134602 0
68.6184 -0.952383 0
68.2331 -0.283373 0
68.1388 0.576802 0
68.7276 0.550375 0
68.0352 0.488178 0
67.8132 0.151722 0
67.7898 -0.093217 0
67.9707 -0.470436 0
75.6395 0.511253 0
76.5858 1.02107 0
75.6302 -0.40653 0
75.7472 -0.0349344 0
66.3934 -0.829235 0
67.6877 -0.0974434 0
67.396 -0.238942 0
67.7083 -0.184142 0
67.7455 0.164697 0
67.7573 0.243018 0
76.6163 -0.460615 0
76.4477 0.00858592 0
76.4716 -0.0086222 0
75.8312 -1.74644 0
70.3006 -0.0219782 0
69.864 -1.81518 0
70.4083 1.09535 0
69.6187 0.260822 0
67.7496 2.43135 0
67.397 4.65772 0
67.3878 -4.2935 0
68.1084 -2.18755 0
68.4201 -1.4005 0
67.5169 -1.53155 0
67.8162 2.81757 0
68.0146 1.28008 0
76.8992 -0.176268 0
76.7053 -0.0151241 0
76.41 0.00502635 0
76.6194 0.21171 0
69.1466 -3.57946 0
69.8621 -3.44998 0
69.4956 2.82236 0
69.9021 5.44054 0
68.659 -2.62259 0
69.431 -1.47851 0
69.2193 1.83744 0
68.7472 0.897047 0
77.0306 0.146916 0
76.0494 0.0475299 0
75.6515 -0.00299478 0
74.4238 -0.217394 0
67.369 0.444884 0
67.7292 0.0287938 0
76.5267 -0.185495 0
77.1059 -0.938061 0
76.6032 -0.0087199 0
76.4224 -0.00684555 0
68.4751 -0.586668 0
68.1213 -0.7274 0
68.6856 1.01862 0
68.0725 0.18926 0
67.8123 -0.116122 0
68.0097 -0.175112 0
67.927 0.0611414 0
67.8035 0.121253 0
65.1238 0.975349 0
67.131 0.821625 0
73.8603 -1.8037 0
76.3926 -3.64315 0
76.5858 3.43027 0
73.5756 1.33304 0
67.068 -1.64902 0
65.6087 -2.09775 0
75.0325 0.244151 0
75.7407 1.5027 0
73.7936 0.135976 0
74.7482 1.85683 0
74.6672 0.76885 0
74.8601 0.0367821 0
75.7049 0.558334 0
74.9211 0.00279356 0
75.8226 -0.299237 0
75.4943 -0.774198 0
76.4527 0.0412289 0
76.127 -0.00515594 0
67.7308 0.125608 0
67.5675 0.121412 0
66.7422 0.15706 0
65.2956 0.376485 0
67.6174 -0.114605 0
67.7255 -0.135566 0
67.3455 0.0558284 0
67.3546 -0.501118 0
77.7579 -0.440709 0
75.5945 -0.720873 0
76.5239 1.23276 0
78.1665 0.84927 0
67.9936 -0.0119111 0
68.0289 -0.0667931 0
67.8651 0.0356219 0
68.171 0.0652607 0
75.0279 -0.039611 0
74.8196 0.0250196 0
75.9246 0.262857 0
75.2663 0.143267 0
73.5617 0.22588 0
73.4515 0.832842 0
75.9478 -0.589333 0
75.0655 -0.113429 0
68.2116 -0.436635 0
68.8674 -1.4195 0
68.4559 0.930395 0
68.1962 0.648795 0
68.6656 1.68481 0
67.5582 0.991013 0
67.9444 -1.24181 0
68.4188 -1.86388 0
76.5328 -0.000247022 0
76.5486 0.427338 0
78.1936 -1.04972 0
77.5835 0.0170587 0
67.621 -0.586137 0
67.7111 -0.725957 0
67.718 0.349038 0
67.3821 0.629324 0
73.3488 0.375586 0
73.5609 0.0598454 0
74.8399 -0.257766 0
75.5371 -1.22055 0
72.5449 2.59201 0
74.0399 4.33843 0
73.8167 -5.25872 0
73.3026 -1.9558 0
66.0061 -2.4463 0
67.558 -2.39785 0
72.3587 -1.87341 0
72.6964 -0.653983 0
71.5856 0.294358 0
73.7707 1.84641 0
65.7477 2.91996 0
66.974 1.62031 0
74.8691 0.0294031 0
74.9881 0.405369 0
74.8164 0.615966 0
74.6597 0.175163 0
75.0065 -0.165668 0
74.8851 -0.722875 0
75.3944 1.18041 0
74.7016 0.166286 0
71.1717 0.87446 0
70.059 0.214401 0
70.826 -0.221612 0
71.2861 -1.96362 0
76.63 -0.0362611 0
76.6101 -0.332605 0
76.8817 -1.89167 0
77.2592 -0.55945 0
70.6834 -2.46739 0
71.3183 -1.14023 0
70.7595 1.6542 0
72.5498 3.69448 0
73.8035 -0.128318 0
73.7725 -0.00641885 0
74.5923 -0.309321 0
74.3786 -1.60065 0
75.097 -0.0652949 0
74.9561 -7.12691e-05 0
74.0105 0.18311 0
73.5251 0.705465 0
69.1791 0.287136 0
69.0224 0.748224 0
69.227 -0.730311 0
69.7546 -0.219298 0
70.1218 1.69867 0
69.1303 1.12102 0
68.7165 -1.86323 0
68.1516 -1.93851 0
76.1678 -0.0947672 0
76.023 -0.0596971 0
76.3056 0.143914 0
77.0538 0.146599 0
69.0794 2.28178 0
69.4207 1.50325 0
68.7879 -0.544008 0
68.6864 -0.204011 0
68.5915 0.149703 0
69.0289 0.502013 0
66.83 -0.717031 0
67.5133 -0.789574 0
77.4971 -1.36539 0
75.7055 -0.890057 0
75.3414 2.22646 0
77.5103 2.16864 0
67.7684 -0.264369 0
67.7897 -0.135251 0
67.757 0.15112 0
67.8533 0.177543 0
68.1261 0.0110824 0
68.1332 0.183345 0
68.2089 -0.134523 0
68.3038 -0.00836974 0
66.1202 -0.362153 0
64.442 -0.0771188 0
72.4914 1.9722 0
75.3539 1.78025 0
74.3825 -1.35019 0
74.9429 -2.8338 0
67.5774 1.16181 0
67.2546 0.559179 0
67.7767 -0.0225777 0
67.5215 -0.050357 0
69.6111 4.30808 0
68.0712 2.43293 0
69.3166 -2.81223 0
68.7288 -5.44762 0
67.3528 0.300354 0
67.6521 0.12532 0
76.5453 0.0246044 0
77.0078 -0.243673 0
74.8813 -0.868601 0
75.7726 -0.235993 0
74.8294 -0.264956 0
74.9993 -0.0719512 0
73.5982 0.0890018 0
73.4493 0.140559 0
78.4616 -0.168474 0
77.3615 0.618592 0
76.7541 0.177493 0