# vtk DataFile Version 3.0
Unstructured Grid for Triangles
ASCII
DATASET UNSTRUCTURED_GRID
POINTS 29612 DOUBLE
-0.000272397 1.23686e-05 0
-0.000295789 9.5838e-06 0
-0.000277865 -3.1235e-06 0
0.002024 0.0005 0
0.00203975 0.00049875 0
0.00205 0.0005 0
0.00203975 -0.00049875 0
0.002024 -0.0005 0
0.00205 -0.0005 0
0.0020295 0.0004975 0
0.0020295 -0.0004975 0
0.00201925 0.00049625 0
0.00201925 -0.00049625 0
-0.000529747 -0.000479887 0
-0.00055 -0.0005 0
-0.000524 -0.0005 0
-0.000505983 -0.000484325 0
-0.000498 -0.0005 0
-0.000472 -0.0005 0
-0.000483864 -0.000487761 0
-0.000446 -0.0005 0
-0.000459 -0.000484239 0
-0.000429453 -0.000424878 0
-0.000447486 -0.000420717 0
-0.000441829 -0.000436609 0
-0.000512578 -0.000462101 0
-0.000493078 -0.000453594 0
-0.00050706 -0.000439006 0
-0.000419243 -0.000477545 0
-0.000440307 -0.000471837 0
-0.00043691 -0.000486724 0
-0.000516129 -0.000420948 0
-0.000495355 -0.000415432 0
-0.000511646 -0.00040128 0
-0.000394697 -0.000481197 0
-0.000406302 -0.000455143 0
-0.000537257 -0.000388197 0
-0.000531099 -0.000407297 0
-0.000523982 -0.000388328 0
-0.000370063 -0.000472956 0
-0.000368 -0.0005 0
-0.00035308 -0.000485302 0
-0.0005072 -0.00037867 0
-0.000485506 -0.000383975 0
-0.000490949 -0.000359622 0
-0.000337127 -0.000484331 0
-0.000316 -0.0005 0
-0.000326495 -0.00047415 0
-0.00055 -0.00035 0
-0.000531201 -0.000370361 0
-0.000528367 -0.000346817 0
-0.000363898 -0.000448809 0
-0.000383315 -0.000460336 0
-3.26269e-05 -0.000415503 0
-5.99662e-05 -0.000409556 0
-5.46944e-05 -0.000429488 0
-0.000529747 0.000479887 0
-0.00055 0.0005 0
-0.00055 0.000475 0
-0.00055 0.00045 0
-0.000534834 0.000429171 0
-0.000526943 0.000442611 0
-0.000534026 0.000460176 0
-0.000531099 0.000407297 0
-0.000511672 0.000401178 0
-0.000516129 0.000420948 0
-0.000524 0.0005 0
-0.000505983 0.000484325 0
-0.000531201 0.000370361 0
-0.0005072 0.00037867 0
-0.000523982 0.000388328 0
-0.00048341 0.000469132 0
-0.000483679 0.000487539 0
-0.000528367 0.000346817 0
-0.00055 0.000325 0
-0.000525657 0.000328474 0
-0.000498 0.0005 0
-0.000530382 0.0003125 0
-0.000419243 0.000477545 0
-0.000440015 0.00047335 0
-0.000425917 0.000463678 0
-0.000435138 0.000262661 0
-0.000414982 0.000274462 0
-0.000435654 0.000285217 0
-0.000459 0.000484239 0
-0.000436852 0.000487027 0
-0.000446 0.0005 0
-0.000533308 0.000292503 0
-0.00055 0.000275 0
-0.000523377 0.000276953 0
-0.000425282 0.000446352 0
-0.000409368 0.000435728 0
-0.000406302 0.000455143 0
0.002009 0.000495 0
0.001998 0.0005 0
0.00199875 0.00049375 0
0.0019885 0.0004925 0
0.001972 0.0005 0
0.00197825 0.00049125 0
0.001968 0.00049 0
0.00195775 0.00048875 0
0.001946 0.0005 0
0.0019475 0.0004875 0
0.00193725 0.00048625 0
0.00192 0.0005 0
0.001927 0.000485 0
0.00191675 0.00048375 0
0.0019065 0.0004825 0
0.001894 0.0005 0
0.00189625 0.00048125 0
0.001886 0.00048 0
0.001868 0.0005 0
0.00187575 0.00047875 0
0.0018655 0.0004775 0
0.00185515 0.00048575 0
0.001842 0.0005 0
0.001845 0.000475 0
0.00185525 0.00047625 0
0.00182564 0.0004829 0
0.001816 0.0005 0
0.0018245 0.0004725 0
0.00183475 0.00047375 0
0.00181425 0.00047125 0
0.00180295 0.000482657 0
0.00179 0.0005 0
0.00179375 0.00046875 0
0.001804 0.00047 0
0.00178168 0.000480619 0
0.001764 0.0005 0
0.00177325 0.00046625 0
0.0017835 0.0004675 0
0.00176428 0.000476631 0
0.001763 0.000465 0
0.001738 0.0005 0
0.001751 0.000484164 0
0.00175275 0.00046375 0
0.00174025 0.000475632 0
0.001712 0.0005 0
0.00172615 0.000478449 0
0.001722 0.00046 0
0.00173225 0.00046125 0
0.0017015 0.0004575 0
0.00171243 0.00047381 0
0.00169554 0.000479999 0
0.001686 0.0005 0
0.00167507 0.000479751 0
0.00168498 0.000464861 0
0.00166 0.0005 0
0.0016558 0.000471459 0
0.00167135 0.000462887 0
0.001681 0.000455 0
0.0016605 0.0004525 0
0.00167075 0.00045375 0
0.00164059 0.000461599 0
0.0016394 0.000479551 0
0.00162881 0.00046615 0
0.00162975 0.00044875 0
0.00165025 0.00045125 0
0.00164 0.00045 0
0.00161754 0.000458641 0
0.00161722 0.000478101 0
0.00159956 0.000458294 0
0.00160925 0.00044625 0
0.0016195 0.0004475 0
0.00157667 0.000460322 0
0.00158875 0.00044375 0
0.00159194 0.000480155 0
0.001599 0.000445 0
0.0015785 0.0004425 0
0.00155808 0.000456757 0
0.00155647 0.000476701 0
0.00154059 0.000466642 0
0.00153756 0.000450083 0
0.00154839 0.000450446 0
0.00156825 0.00044125 0
0.00151954 0.000480508 0
0.00154052 0.00048477 0
0.00153 0.0005 0
0.00154775 0.00043875 0
0.00152142 0.000456625 0
0.00152821 0.000445753 0
0.0015375 0.0004375 0
0.001504 0.0005 0
0.00149644 0.000485168 0
0.00151787 0.000443178 0
0.00152725 0.00043625 0
0.00150675 0.00043375 0
0.001517 0.000435 0
0.00148119 0.000450887 0
0.00148072 0.000475756 0
0.00146584 0.000463516 0
0.00150008 0.00046396 0
0.00149351 0.00044543 0
0.0015061 0.000446252 0
0.001476 0.00043 0
0.00148625 0.00043125 0
0.00146492 0.000482975 0
0.00144888 0.000473562 0
0.00146676 0.000444259 0
0.00145255 0.000453656 0
0.00145652 0.000438669 0
0.00141401 0.000479821 0
0.001426 0.0005 0
0.0014 0.0005 0
0.00144374 0.000438862 0
0.0014555 0.0004275 0
0.001435 0.000425 0
0.00144525 0.00042625 0
0.00142746 0.000438121 0
0.00141288 0.000443191 0
0.00141707 0.000432778 0
0.0013921 0.000438992 0
0.00140355 0.00045932 0
0.00138302 0.00045922 0
0.00142912 0.000458869 0
0.00140592 0.000430037 0
0.0014145 0.0004225 0
0.00136458 0.00045869 0
0.00137106 0.00044063 0
0.001394 0.00042 0
0.00138259 0.000428915 0
0.00137484 0.000477094 0
0.00139166 0.000478902 0
0.0013586 0.000478984 0
0.00133449 0.000478649 0
0.00134717 0.000461848 0
0.00137256 0.000425134 0
0.00135323 0.000424541 0
0.00136325 0.00041625 0
0.00136122 0.00042876 0
0.00131206 0.000447284 0
0.00133168 0.000456738 0
0.00131773 0.000465243 0
0.00134756 0.000440343 0
0.00132747 0.000436463 0
0.00133483 0.000426786 0
0.00131081 0.00041867 0
0.00132382 0.000422815 0
0.00131507 0.00043122 0
0.00131059 0.000480123 0
0.0013325 0.0004125 0
0.0012915 0.0004075 0
0.0012982 0.000418199 0
0.00128915 0.000426216 0
0.00126366 0.000447574 0
0.00127331 0.000430908 0
0.00128781 0.000444872 0
0.00125336 0.000428376 0
0.00130218 0.000431077 0
0.00127894 0.000416344 0
0.00124774 0.000469608 0
0.00127668 0.000464148 0
0.00126591 0.00048331 0
0.00126722 0.000418415 0
0.00125768 0.000411931 0
0.00124326 0.000413546 0
0.0012505 0.0004025 0
0.00122408 0.000450118 0
0.00120276 0.000447432 0
0.0012139 0.000432235 0
0.00124336 0.000444132 0
0.00123056 0.000427595 0
0.00122977 0.000409049 0
0.0012185 0.000469217 0
0.00122676 0.000485947 0
0.00120525 0.000486094 0
0.00121479 0.000413153 0
0.00119547 0.000424221 0
0.00120249 0.000407448 0
0.00119925 0.00039625 0
0.00119346 0.000406114 0
0.00117479 0.000447279 0
0.00114726 0.000445259 0
0.0011571 0.000427814 0
0.00119443 0.000466611 0
0.00117447 0.000421596 0
0.00118421 0.00040752 0
0.00117409 0.000404437 0
0.00116775 0.000470073 0
0.001179 0.0004855 0
0.00115473 0.000484802 0
0.0011685 0.0003925 0
0.00117875 0.00039375 0
0.00115454 0.000400551 0
0.001148 0.00039 0
0.00115825 0.00039125 0
0.00111703 0.000423398 0
0.00113786 0.000426731 0
0.00112589 0.000443871 0
0.00113234 0.000406671 0
0.00114754 0.000413371 0
0.001106 0.000442326 0
0.00109703 0.000424261 0
0.0011275 0.0003875 0
0.00113775 0.00038875 0
0.00110211 0.000480875 0
0.00108244 0.000471951 0
0.00109312 0.000458413 0
0.00111755 0.000399116 0
0.0010944 0.000392972 0
0.00110415 0.000405876 0
0.00108839 0.000407536 0
0.00106472 0.000476905 0
0.00107274 0.000457868 0
0.00108011 0.000392415 0
0.00106885 0.000404365 0
0.00106625 0.000388708 0
0.00105286 0.000419254 0
0.00105055 0.000395469 0
0.00104215 0.000439764 0
0.00106346 0.000440629 0
0.00100945 0.000451249 0
0.00102825 0.00045614 0
0.00101189 0.000468452 0
0.00107625 0.00038125 0
0.00105575 0.00037875 0
0.001066 0.00038 0
0.00103352 0.000476905 0
0.00101803 0.00048465 0
0.00103685 0.000389398 0
0.0010245 0.00038825 0
0.00103525 0.00037625 0
0.00101092 0.000399779 0
0.00101267 0.000382619 0
0.00101382 0.00042025 0
0.00103187 0.000405286 0
0.00103359 0.000424605 0
0.000987383 0.00045447 0
0.000999411 0.000435161 0
0.0009744 0.000433145 0
0.0010045 0.0003725 0
0.00101475 0.00037375 0
0.000970845 0.000465215 0
0.000952614 0.000467664 0
0.000961768 0.000449944 0
0.00099729 0.000387704 0
0.000978901 0.00039598 0
0.000985823 0.000381492 0
0.000962289 0.000393709 0
0.000974259 0.000381279 0
0.00097375 0.00036875 0
0.000963045 0.000376631 0
0.000958 0.0005 0
0.000932 0.0005 0
0.000947542 0.00048457 0
0.000949675 0.000385245 0
0.000936214 0.000389472 0
0.000940006 0.000374906 0
0.000966411 0.000412573 0
0.000944241 0.000407079 0
0.000903569 0.000424993 0
0.000921701 0.000402409 0
0.000927439 0.000427744 0
0.000889795 0.000409067 0
0.000903071 0.00040248 0
0.000925447 0.000377721 0
0.00093275 0.00036375 0
0.000907708 0.000387127 0
0.000911303 0.000370839 0
0.000911933 0.000455145 0
0.000930678 0.000473279 0
0.000911886 0.000482603 0
0.000887724 0.000388076 0
0.000899595 0.000375116 0
0.000902 0.00036 0
0.000889241 0.00036954 0
0.000836977 0.000459472 0
0.000836223 0.000483578 0
0.000820467 0.000474142 0
0.000871227 0.000403557 0
0.000861 0.000355 0
0.000868368 0.000365714 0
0.00085484 0.00036588 0
0.000847735 0.000402845 0
0.000823121 0.000421599 0
0.000826582 0.000398147 0
0.000846943 0.00042454 0
0.000838832 0.000378613 0
0.000835569 0.000363808 0
0.000844098 0.00036291 0
0.00085075 0.00035375 0
0.000851465 0.000477164 0
0.00083025 0.00035125 0
0.000822824 0.000368659 0
0.00081446 0.000357362 0
0.000805884 0.000371794 0
0.000753471 0.000477524 0
0.000738313 0.000473927 0
0.000739102 0.000461526 0
0.00079826 0.000358588 0
0.000788607 0.000376287 0
0.000781733 0.000357987 0
0.000816783 0.000384471 0
0.000807975 0.000404095 0
0.000752138 0.000404775 0
0.000767682 0.000417043 0
0.000749617 0.000421803 0
0.000752903 0.000384008 0
0.000738293 0.000393136 0
0.000772614 0.000394048 0
0.00076863 0.000371878 0
0.000765995 0.000354121 0
0.000779 0.000345 0
0.00071811 0.000453059 0
0.000738069 0.000437967 0
0.000752085 0.000365972 0
0.000728123 0.000374583 0
0.000741845 0.000354664 0
[...]
CELL_DATA 58684
VECTORS velocity DOUBLE
65.1012 0.464516 0
70.2843 0.000210258 0
70.2356 -0.000116389 0
70.3127 -0.000431022 0
70.2425 -0.00166611 0
70.3296 -0.00788578 0
70.2511 0.0025557 0
67.7749 -0.0108981 0
67.7693 -0.0548035 0
67.8502 -0.00959937 0
67.9173 -0.0116864 0
67.9248 -0.37489 0
67.7957 -0.225756 0
67.9826 -0.112759 0
67.7717 -0.397955 0
68.0649 -0.136847 0
67.7779 -0.292132 0
68.2179 -0.118449 0
67.826 -0.589623 0
68.5361 -0.091449 0
67.8165 -0.289683 0
68.2168 -0.280117 0
72.6383 -1.53008 0
67.7731 0.0344237 0
67.7438 0.153704 0
67.7741 0.0739717 0
67.78 0.35543 0
67.7617 0.0552282 0
67.7885 0.463783 0
67.8477 0.0951888 0
67.8148 0.373628 0
67.7972 0.0629333 0
67.7022 0.375518 0
68.0161 0.151471 0
67.798 1.00639 0
67.9338 0.0740496 0
67.8587 0.435857 0
68.045 0.309322 0
70.3381 -0.00483303 0
70.357 0.0012614 0
70.3954 -0.0129733 0
70.4003 -0.0102831 0
70.4259 0.0029984 0
70.4714 -0.0131206 0
70.4827 -0.0184262 0
70.4951 -0.00633241 0
70.5268 0.00554025 0
70.5707 -0.0228983 0
70.5793 -0.0133012 0
70.6187 0.00768698 0
70.677 -0.0251655 0
70.6915 -0.02326 0
70.7089 -0.00298269 0
70.7522 0.0112875 0
70.8006 -0.024834 0
70.812 -0.00907815 0
70.8621 0.012227 0
70.9235 -0.0281677 0
70.9407 -0.0200952 0
70.9658 0.000595717 0
71.0195 0.0123661 0
71.0353 -0.016023 0
71.1006 0.00322451 0
71.16 0.0121694 0
71.1671 -0.00480294 0
71.1868 0.00946497 0
71.2276 0.0130259 0
71.2715 0.0129197 0
71.2829 0.0118094 0
71.3208 0.0165677 0
71.3742 0.0121482 0
71.3756 0.0138165 0
71.4052 0.0219497 0
71.4347 0.0104932 0
71.4862 0.0127102 0
71.4995 0.0206792 0
71.5142 0.0108995 0
71.5642 0.0144057 0
71.5674 0.0384757 0
71.6225 0.0393073 0
71.5849 0.0383689 0
71.6208 0.011399 0
71.6368 0.0203245 0
71.6392 0.0499112 0
71.6515 0.0282736 0
71.6587 0.0447416 0
71.6472 0.0597997 0
71.6541 0.0674045 0
71.6571 0.0455996 0
71.6478 0.0605161 0
71.6656 0.0560415 0
71.6548 0.0711021 0
71.6341 0.0500746 0
71.635 0.052073 0
71.6455 0.0691748 0
71.606 0.0594414 0
71.6105 0.0535599 0
71.6236 0.064627 0
71.5985 0.070822 0
71.5596 0.0496147 0
71.5298 0.0373813 0
71.5824 0.0514614 0
71.494 0.00826248 0
71.5486 0.0424487 0
71.4986 0.0296981 0
71.5319 0.0352143 0
71.4491 0.0112581 0
71.5134 0.0262278 0
71.4964 0.0120834 0
71.4136 -0.00962426 0
71.4252 -0.00250495 0
71.4545 0.00247602 0
71.4399 -0.0283489 0
71.3814 -0.0152568 0
71.4146 -0.0455598 0
71.3923 -0.0288184 0
71.3276 -0.00607088 0
71.4072 -0.0629879 0
71.4075 -0.09738 0
71.3983 -0.101832 0
71.3833 -0.102452 0
71.3639 -0.0610021 0
71.4008 -0.1326 0
71.3947 -0.11352 0
71.4116 -0.175039 0
71.3742 -0.0629515 0
71.4135 -0.15778 0
71.3983 -0.0692992 0
71.4363 -0.189738 0
71.456 -0.244458 0
71.4807 -0.148336 0
71.4775 -0.216563 0
71.4219 -0.0985692 0
71.5246 -0.280626 0
71.4228 -0.0834589 0
71.4904 -0.283597 0
71.5749 -0.317574 0
71.5941 -0.215805 0
71.606 -0.258664 0
71.572 -0.26311 0
71.59 -0.283545 0
71.4895 -0.118261 0
71.6509 -0.318963 0
71.6879 -0.339756 0
71.6852 -0.187476 0
71.5686 -0.157793 0
71.6561 -0.283969 0
71.6837 -0.326236 0
71.5593 -0.0589602 0
71.7683 -0.305385 0
71.7818 -0.314051 0
71.7245 -0.140008 0
71.6406 -0.159997 0
71.7745 -0.238752 0
71.7977 -0.275528 0
71.6132 -0.0461268 0
71.8137 -0.304017 0
71.8277 -0.264628 0
71.7346 -0.137361 0
71.8137 -0.179675 0
71.7304 -0.0980424 0
71.8321 -0.209538 0
71.6136 -0.0347908 0
71.8315 -0.181625 0
71.8207 -0.112653 0
71.5988 -0.0232312 0
71.7816 -0.0707845 0
71.735 -0.050439 0
71.6773 -0.0384701 0
71.5297 -0.0244741 0
71.8079 -0.0740272 0
71.7939 -0.0540656 0
71.5192 -0.0141093 0
71.7206 -0.0123953 0
71.6573 -0.0036223 0
71.6675 -0.0191129 0
71.537 -0.0300454 0
71.5226 -0.0371194 0
71.6715 0.00757634 0
71.4752 -0.0452225 0
71.5825 -0.0230469 0
71.5537 -0.0505726 0
71.5704 -0.037945 0
71.4622 -0.0043693 0
71.5032 -0.130891 0
71.52 -0.0895688 0
71.4937 -0.181644 0
71.5215 -0.274713 0
71.4669 -0.170311 0
71.4435 -0.232097 0
71.4951 -0.0659396 0
71.4392 -0.334361 0
71.4663 -0.379323 0
71.4731 -0.383245 0
71.817 -0.172302 0
71.5345 -0.378254 0
71.5272 -0.637976 0
71.8318 -0.624419 0
71.7043 -0.520873 0
71.6416 -0.832757 0
71.571 -0.749584 0
71.8058 -0.137511 0
71.7265 -1.02649 0
71.7831 -0.992338 0
72.6954 -0.232557 0
72.0206 -1.28626 0
71.876 -0.743608 0
72.5453 -0.863683 0
72.6292 -1.20292 0
72.2643 -1.20753 0
72.1043 -1.4715 0
72.7741 -0.570555 0
72.6007 -1.52729 0
72.4512 -1.77355 0
73.0298 -1.8875 0
73.3655 -0.0141581 0
73.06 -1.53057 0
73.0655 -2.00187 0
73.0939 -0.452423 0
73.2387 -2.1177 0
73.7954 -1.09633 0
73.4025 -2.23358 0
74.2462 -0.542297 0
73.9604 -1.78349 0
73.8067 -2.17144 0
73.9601 -0.305674 0
74.3271 -2.21187 0
74.8297 -1.93742 0
74.3926 -1.70406 0
74.5813 -0.906658 0
74.9602 -2.23569 0
74.8771 -0.689858 0
75.0922 -0.103107 0
74.7049 -1.64209 0
75.296 -2.00933 0
75.545 -2.18692 0
75.2544 -0.476553 0
75.7072 -1.53425 0
76.1345 -1.51155 0
75.2942 -0.154805 0
76.2774 -1.17309 0
76.2422 -1.46941 0
75.692 -1.09419 0
75.578 -0.443402 0
75.7753 -0.442105 0
76.408 -1.13413 0
75.6589 -0.00323356 0
76.5028 -1.04441 0
76.6188 -0.792651 0
76.572 -0.880643 0
75.8923 -0.154751 0
76.3716 -0.517596 0
76.588 -0.31959 0
75.8002 -0.00219705 0
76.5935 -0.231525 0
76.4624 -0.082848 0
76.2995 -0.309715 0
75.9814 -0.145278 0
76.5362 -0.0637125 0
76.1237 -0.148904 0
75.8595 -0.00405274 0
76.4247 -0.0860593 0
76.4565 0.0473324 0
76.3949 0.0472682 0
75.9845 -0.0208708 0
76.3744 -0.00316046 0
76.3743 0.0459752 0
75.9047 0.0220466 0
76.3433 0.0500765 0
76.3396 -0.0213763 0
76.4031 -0.0109895 0
75.7489 0.00349755 0
76.3875 -0.103194 0
76.2935 0.100463 0
76.4393 0.136946 0
76.4357 -0.0817078 0
76.438 -0.0131641 0
76.5817 -0.145208 0
75.8652 0.189863 0
76.5395 -0.199965 0
76.6512 0.0538518 0
76.8349 -0.116975 0
75.8116 0.0527197 0
77.0693 0.290396 0
77.0133 0.478888 0
75.0537 0.111604 0
77.1927 -0.0489455 0
77.3972 0.369808 0
75.9513 0.812805 0
75.6923 0.388713 0
76.6617 0.480299 0
77.4685 0.754929 0
75.258 0.204098 0
77.3202 1.37216 0
77.5003 0.729678 0
77.5126 0.916259 0
74.7835 0.895204 0
76.5504 1.6129 0
77.4292 1.65153 0
74.7791 0.151116 0
77.278 2.03657 0
77.1931 2.07696 0
76.5666 3.25826 0
73.3403 0.241171 0
77.3141 2.94375 0
75.8578 2.15474 0
74.4625 0.996585 0
74.3252 1.94433 0
77.1721 3.2779 0
76.5561 3.77924 0
73.7292 0.401892 0
76.4296 4.30298 0
70.2535 0.000443118 0
70.2591 -0.00137447 0
70.2769 0.00309066 0
70.2796 0.00203422 0
70.294 -0.00321096 0
70.3205 0.00411919 0
70.3292 0.00576595 0
70.3387 -0.00040224 0
70.3621 -0.00598175 0
70.3934 0.0106227 0
70.4014 0.00393478 0
70.4339 -0.00834287 0
70.4764 0.0118631 0
70.4912 0.0105625 0
70.5068 -0.0013942 0
70.5468 -0.0119849 0
70.5885 0.0149702 0
70.6007 0.00476659 0
70.6494 -0.0127149 0
70.7063 0.0232376 0
70.7249 0.0192699 0
70.8017 0.0279886 0
70.7501 -0.00113945 0
70.8519 0.0131511 0
70.9449 0.0171257 0
70.8916 0.00664578 0
70.9905 0.0133137 0
71.0389 0.004429 0
71.0916 0.0329539 0
71.0212 0.0231775 0
71.1587 0.0085686 0
71.218 0.0433902 0
71.1634 0.0258132 0
71.3317 0.0549931 0
71.3537 0.0431521 0
71.3912 0.0291821 0
71.3034 0.0288984 0
71.4177 0.0352597 0
71.5132 0.0230376 0
71.4478 0.0270712 0
71.607 0.0623961 0
71.6056 0.0202592 0
71.6566 0.0287614 0
71.5811 0.0360028 0
71.6831 0.0456219 0
71.764 0.0460682 0
71.793 0.0321254 0
71.7542 0.0506401 0
71.8265 0.0523061 0
71.8377 0.0581066 0
71.8835 0.0228342 0
71.8725 0.0330948 0
71.9065 0.0426007 0
71.9416 0.0642487 0
71.926 0.0233547 0
71.9558 0.0377601 0
71.9704 0.055627 0
71.9355 0.0130785 0
71.9289 0.0335605 0
71.982 0.0449612 0
71.9803 0.038055 0
71.9372 0.0115331 0
71.9318 0.00713217 0
71.9421 0.0126132 0
71.9297 0.0107457 0
71.9703 0.00878856 0
71.9474 -0.00512479 0
71.9345 0.00295488 0
71.9115 0.0026542 0
71.9206 -0.0187054 0
71.9092 -0.0183281 0
71.7698 -0.0347311 0
71.8873 -0.0209352 0
71.8579 -0.0437965 0
71.8335 -0.0591909 0
71.8092 -0.00851832 0
71.7979 -0.0469595 0
71.7782 -0.075451 0
71.7603 -0.0356485 0
71.748 -0.0668196 0
71.677 -0.104812 0
71.6628 -0.0769838 0
71.5438 -0.0303682 0
71.6271 -0.0987938 0
71.6121 -0.102681 0
71.4671 -0.0292667 0
71.5577 -0.11971 0
71.5521 -0.0891152 0
71.4658 -0.0910609 0
71.5028 -0.0610825 0
71.4687 -0.130346 0
71.337 -0.128294 0
71.2685 -0.0200919 0
71.3544 -0.0906463 0
71.2851 -0.124206 0
71.2771 -0.0725755 0
71.3171 -0.0386924 0
71.2431 -0.0879463 0
71.1953 -0.0684404 0
71.1435 -0.00819718 0
71.1243 -0.00459813 0
71.1232 -0.0126919 0
71.1235 -0.033926 0
71.1686 -0.0325344 0
71.0768 0.00973242 0
71.0545 0.0440667 0
71.0516 0.0475665 0
71.0597 0.035915 0
71.0183 0.118879 0
71.0225 0.125868 0
71.0467 0.011864 0
71.0125 0.174195 0
70.9711 0.242799 0
71.0607 0.114847 0
71.0224 0.178007 0
71.0225 0.343414 0
71.0238 0.30277 0
71.0187 0.0607531 0
71.0191 0.380817 0
71.0891 0.554574 0
71.0976 0.137377 0
71.0724 0.488024 0
71.21 0.220376 0
71.1514 0.542639 0
71.1884 0.272278 0
71.1825 0.671023 0
71.2719 0.74808 0
71.2771 0.191739 0
71.2543 0.730958 0
71.434 0.900816 0
71.4819 0.224751 0
71.2425 0.593924 0
71.4158 0.772783 0
71.53 0.925432 0
71.4725 0.136079 0
71.5595 0.846992 0
71.8371 1.10701 0
71.774 0.906336 0
71.755 0.270627 0
71.9836 0.92118 0
71.6432 0.346356 0
71.6049 0.804475 0
71.9597 1.04655 0
72.2506 1.13589 0
72.2534 1.13723 0
71.7013 0.0204161 0
72.5303 1.22833 0
72.5515 1.1583 0
72.5675 0.906187 0
72.4535 0.41553 0
72.6583 0.388381 0
72.6429 1.05985 0
72.1393 0.31064 0
72.9407 1.0297 0
72.8727 1.01305 0
72.8678 0.826922 0
72.5836 0.225271 0
73.0595 0.81146 0
73.3291 0.915044 0
72.8619 0.301202 0
72.8435 0.378379 0
73.1529 0.682103 0
73.5006 0.704397 0
72.6688 0.261245 0
73.5149 0.710142 0
73.5648 0.579215 0
73.037 0.11399 0
73.6506 0.443228 0
73.6825 0.41145 0
73.6135 0.288516 0
73.2873 0.177654 0
73.3165 0.232887 0
73.6319 0.347065 0
73.1591 0.177563 0
73.7081 0.279134 0
73.7244 0.244824 0
73.6745 0.213349 0
73.3256 0.0634169 0
73.7142 0.175852 0
73.7206 0.16455 0
73.6315 0.212584 0
73.7214 0.254488 0
73.6083 0.190029 0
73.6956 0.19933 0
73.512 0.133058 0
73.6937 0.221017 0
73.6887 0.262997 0
73.5235 0.113785 0
73.7388 0.398245 0
73.7026 0.514777 0
73.7325 0.451475 0
73.9559 0.183376 0
73.7783 0.727586 0
73.8103 0.809298 0
73.7897 0.371444 0
74.0744 0.788203 0
73.9083 0.308886 0
73.9966 1.08657 0
74.1849 0.138801 0
74.0569 1.24218 0
74.1604 1.30428 0
73.9941 0.0958567 0
74.2354 1.2293 0
74.5041 1.7023 0
74.6775 1.81215 0
74.6861 0.455035 0
74.8195 1.89888 0
74.9606 2.12333 0
74.3085 0.942584 0
75.3661 1.45766 0
74.9686 0.486925 0
75.3043 2.25636 0
75.0946 0.183236 0
75.61 2.23648 0
75.8338 2.24329 0
74.8152 0.119522 0
75.7363 1.90085 0
76.4479 2.24115 0
76.8394 2.13502 0
75.4942 0.412959 0
76.5696 2.03087 0
77.1123 2.09339 0
75.994 1.60887 0
77.0887 1.21033 0
75.7421 0.32122 0
76.7937 1.8976 0
75.9228 0.127787 0
77.5907 1.88692 0
77.7419 1.56241 0
75.6891 0.109697 0
77.4232 1.02711 0
77.9653 1.04969 0
78.2209 0.785297 0
76.2822 0.0344535 0
78.2903 0.436039 0
78.3557 0.283221 0
76.5114 -0.0323366 0
78.3143 0.190132 0
77.5399 -0.263916 0
76.6107 0.248337 0
76.3309 0.255184 0
78.3105 -0.21675 0
78.1744 -0.598043 0
78.3688 -0.882067 0
76.1583 0.000917342 0
77.8351 -1.01979 0
78.1716 -1.54314 0
76.2814 -0.0462768 0
77.7398 -0.989695 0
78.0448 -1.97056 0
77.1808 -1.34194 0
76.3557 -0.425173 0
77.904 -2.18208 0
77.7227 -2.42149 0
77.2005 -0.76729 0
76.607 -2.38985 0
75.2534 -1.88661 0
77.6978 -2.3596 0
75.4778 -0.282757 0
77.395 -3.05903 0
75.8925 4.77312 0
76.3504 4.22772 0
72.582 1.31744 0
75.8531 4.74376 0
74.3412 4.50174 0
75.286 5.24531 0
72.97 0.508732 0
74.6954 5.42846 0
73.9651 5.44234 0
72.0834 0.681825 0
73.9472 5.74264 0
77.3293 -3.2924 0
75.6824 -0.174887 0
77.1489 -3.50676 0
76.4338 -3.74712 0
75.9814 -3.25454 0
75.09 -0.19843 0
76.4851 -4.17397 0
73.1782 5.37528 0
75.9163 -4.94433 0
74.917 -1.00976 0
75.7477 -4.78087 0
75.0433 -5.42248 0
71.3095 1.66933 0
74.8204 -5.29739 0
75.8114 -3.04058 0
75.3009 -4.82879 0
74.032 -3.57057 0
73.4062 -0.602706 0
74.6806 -4.87634 0
74.1581 -5.12739 0
72.7491 5.65345 0
74.1791 -5.19618 0
74.0497 -0.3181 0
73.5066 -5.39829 0
73.0443 -5.86033 0
72.9388 -0.391607 0
72.3281 -5.95315 0
72.7296 -4.41286 0
71.3575 -0.468339 0
71.6851 -6.02801 0
71.722 -3.42614 0
72.8595 -2.70287 0
72.1439 -5.22782 0
71.337 -5.47061 0
73.2706 2.96319 0
70.6631 0.37814 0
72.7721 2.01802 0
71.802 -0.0395809 0
70.9962 -5.84993 0
72.5724 5.38779 0
70.5152 0.273422 0
72.0302 4.6287 0
70.4144 -5.79751 0
71.464 -1.23425 0
69.8849 -4.21887 0
72.0705 6.09762 0
69.7519 1.52896 0
72.0444 6.02629 0
70.5078 5.22131 0
69.9113 0.304777 0
71.0631 5.42936 0
70.2536 -4.42098 0
71.1389 -0.362046 0
69.8418 -5.90348 0
69.8957 -5.70968 0
71.2749 5.79734 0
69.9514 5.64658 0
69.441 0.0264695 0
70.6768 5.78357 0
69.2092 3.71674 0
69.4838 1.75872 0
69.19 -5.8374 0
69.6802 -0.787403 0
69.4447 -5.73985 0
69.0548 5.9163 0
68.7647 -5.38184 0
69.072 -0.791238 0
68.9066 -2.44548 0
68.0066 -5.12544 0
69.9026 -2.85772 0
67.8552 -4.93937 0
68.7416 -0.229034 0
67.2258 -4.74001 0
68.6473 2.26677 0
68.9581 0.358198 0
68.7552 5.05754 0
68.5674 0.097717 0
68.5791 5.8465 0
68.4567 5.54628 0
68.3431 0.162638 0
67.9 4.90756 0
68.2364 0.113967 0
68.134 -4.4568 0
68.7459 -0.437288 0
69.1246 4.36503 0
67.7239 0.977782 0
67.6873 4.66138 0
67.1621 -4.73664 0
68.8454 -0.188822 0
66.0057 -3.9805 0
67.767 -0.794429 0
66.5197 -4.00145 0
68.1765 2.12359 0
67.7804 0.28853 0
68.6122 -3.64314 0
67.7812 -0.284459 0
66.0973 -3.7462 0
67.2132 4.2613 0
67.1008 -2.98061 0
67.791 -0.561432 0
66.3048 -3.23215 0
67.7932 2.55216 0
66.2699 1.68665 0
66.8353 3.75279 0
67.5415 -0.766684 0
66.2369 -3.53476 0
67.6916 0.754719 0
66.8002 4.869 0
67.5345 -1.73113 0
67.7864 -0.199532 0
66.0147 -3.22441 0
66.6828 4.45431 0
67.692 0.932523 0
66.5399 3.60044 0
66.3825 3.53644 0
67.7096 0.699116 0
65.8364 3.19317 0
65.4237 -2.80968 0
67.7336 -0.576786 0
65.1784 -2.81966 0
66.8187 -1.34352 0
67.7825 -0.416381 0
64.8633 -1.87075 0
65.8299 3.89526 0
67.6066 0.802483 0
66.6863 2.63773 0
65.2349 -1.65256 0
67.6433 -0.453358 0
64.7508 -1.52111 0
64.9825 2.92994 0
67.6403 0.44305 0
65.2414 2.80517 0
65.4522 2.33711 0
67.7918 0.0788511 0
64.9058 2.46324 0
65.6245 -0.931454 0
67.5702 -0.564804 0
65.0902 -0.795817 0
64.2682 -0.408526 0
67.1344 -0.547631 0
64.4459 -0.310197 0
66.9533 0.880895 0
67.6925 0.160274 0
66.4031 2.01972 0
64.8276 1.99795 0
67.5474 0.125771 0
64.3864 1.38209 0
67.319 -0.0961745 0
67.7494 -0.233921 0
64.3358 0.0576599 0
64.6693 0.178546 0
67.7348 -0.094727 0
66.28 0.417166 0
64.9471 0.617964 0
67.7448 -0.10911 0
67.2032 -3.94152 0
67.8001 -0.784127 0
67.7365 0.317848 0
68.0264 5.05037 0
68.3869 -5.35277 0
70.3392 -0.682079 0
69.3143 0.765929 0
70.4722 6.07672 0
67.677 0.526378 0
65.4807 3.73904 0
64.9589 -1.88833 0
67.674 -0.43291 0
67.7468 -0.882953 0
67.4191 -2.61373 0
67.7727 0.940717 0
67.8855 0.450185 0
67.7217 0.031695 0
64.759 1.76512 0
68.5172 0.392501 0
67.998 1.27754 0
68.1663 -1.02571 0
69.1148 -0.518773 0
72.9541 -0.880135 0
72.6856 -5.82465 0
74.2044 5.44419 0
72.7113 0.301359 0
67.6 1.33777 0
69.0371 5.701 0
68.0973 -4.88752 0
68.4951 -1.77245 0
66.9886 -0.970921 0
65.4791 0.0436771 0
66.7381 4.3864 0
67.8021 1.5288 0
67.6783 -1.24445 0
65.4993 -3.21211 0
76.9692 -3.87274 0
74.8432 -0.48804 0
74.4128 0.489275 0
77.2986 2.56607 0
67.7807 -0.864829 0
67.7981 -0.12107 0
67.7359 0.380528 0
68.3228 0.629616 0
71.1294 0.504023 0
71.0016 2.90111 0
69.776 -1.41038 0
71.9063 -1.23365 0
70.3002 3.51705 0
72.3767 5.72825 0
71.3911 -5.9776 0
70.6807 -1.34441 0
73.4885 1.06758 0
74.3883 3.36834 0
73.2847 -1.97828 0
74.0885 -0.0187591 0
76.2766 -0.11491 0
78.3463 -1.06647 0
76.9106 -0.174927 0
75.3794 0.0141432 0
75.9176 0.00689446 0
77.7785 1.53176 0
76.3727 -0.0320911 0
75.9639 0.02452 0
68.3758 -1.12065 0
68.0414 -0.41932 0
67.9647 1.00751 0
68.4736 0.801622 0
67.8968 1.01667 0
67.7829 0.574748 0
67.7698 -0.280168 0
67.8478 -0.874471 0
75.2707 0.577616 0
76.1322 1.05284 0
75.7822 -0.814288 0
75.8756 -0.103071 0
66.3206 -0.592154 0
67.7593 -0.251828 0
67.3541 -0.323832 0
67.7393 -0.645068 0
67.7583 0.448865 0
67.6839 1.00137 0
75.9886 2.2185 0
75.2982 0.30727 0
75.8412 -0.0018477 0
76.6201 -0.341899 0
70.0945 -0.0205332 0
69.6205 -2.01102 0
70.3578 1.30001 0
69.448 0.341725 0
67.6881 3.17533 0
67.3785 5.32628 0
67.1451 -4.32179 0
67.9265 -2.37257 0
68.2029 -1.60401 0
67.3952 -1.60249 0
67.7629 3.54453 0
67.8799 1.83704 0
75.9605 0.030838 0
75.8283 0.0714972 0
76.2708 0.0273553 0
77.2534 0.686123 0
68.8903 -3.73628 0
69.5974 -3.63441 0
69.4598 3.36986 0
69.9377 6.06749 0
68.425 -2.84919 0
69.1784 -1.69073 0
69.1105 2.35463 0
68.5205 1.29296 0
74.4319 1.66264 0
74.4698 0.199031 0
75.5386 -0.00791592 0
75.9475 -1.65669 0
67.2894 0.873374 0
67.7561 0.0679722 0
75.8995 -0.0212913 0
76.3251 -0.031403 0
76.2663 0.691883 0
75.4883 0.106391 0
68.2368 -0.713177 0
67.9639 -0.960797 0
68.4811 1.46159 0
67.9465 0.698603 0
67.8193 -0.364921 0
67.8839 -0.704684 0
67.8174 0.613211 0
67.7614 0.342068 0
65.0446 1.5055 0
67.0673 1.30118 0
73.8395 -2.22239 0
76.0502 -4.55871 0
76.8193 3.6552 0
73.6449 1.49849 0
66.9597 -1.6052 0
65.4547 -1.95016 0
73.727 0.115571 0
73.7082 0.356509 0
73.1193 0.0553912 0
73.7206 0.155078 0
74.6168 -2.10389 0
74.291 -0.269661 0
72.6553 -1.77406 0
73.0138 -0.0203767 0
75.7347 -0.17713 0
76.1061 -0.489528 0
74.9088 0.701159 0
74.7168 0.00835313 0
67.7879 0.369844 0
67.522 0.637898 0
66.6721 0.511599 0
65.2056 0.843436 0
67.6564 -0.314928 0
67.7463 -0.321682 0
67.2812 0.323075 0
67.2668 -0.448091 0
77.7992 -2.25694 0
75.7254 -1.28465 0
76.2105 1.26039 0
77.3704 0.341267 0
67.8514 -0.0907674 0
67.9262 -0.424899 0
67.7722 0.131585 0
67.9923 0.242779 0
74.9963 -0.338124 0
75.1297 -0.969448 0
74.2207 0.420981 0
73.8498 0.0840051 0
72.9526 0.216336 0
73.3599 0.569993 0
71.7936 -1.13413 0
72.0848 -0.279204 0
68.053 -0.665866 0
68.6154 -1.65243 0
68.2374 1.34967 0
67.9938 1.04255 0
68.541 2.33663 0
67.4689 1.50885 0
67.802 -1.38537 0
68.2031 -2.1025 0
76.8437 -0.23133 0
77.7577 1.03971 0
76.4072 -0.100264 0
76.454 0.243462 0
67.5264 -0.818269 0
67.6015 -0.974662 0
67.6126 1.01713 0
67.2998 1.0964 0
73.188 1.02665 0
72.5018 0.377693 0
71.6054 -0.120271 0
71.5064 -0.522573 0
72.6553 2.93671 0
74.2267 4.83298 0
73.4318 -5.80562 0
73.2346 -2.34327 0
65.8405 -2.35353 0
67.3898 -2.54585 0
72.2703 -2.16061 0
72.7105 -0.789745 0
71.6215 0.343588 0
73.8218 2.05118 0
65.6816 3.58465 0
66.9154 2.2618 0
73.5994 -0.113035 0
73.8809 -1.30647 0
73.6451 0.203706 0
73.562 0.0688612 0
75.155 -0.269702 0
74.9983 -1.09833 0
75.1986 1.26674 0
74.5189 0.185 0
71.1963 1.0185 0
69.9448 0.262968 0
70.6557 -0.245742 0
71.1001 -2.18218 0
76.1096 0.864951 0
76.1373 1.98545 0
76.4402 -0.0223284 0
76.2653 0.0364996 0
70.4511 -2.66855 0
71.1811 -1.27981 0
70.7543 1.92891 0
72.6923 4.16551 0
72.1954 0.959611 0
71.9878 0.176745 0
71.4941 -0.0927822 0
71.5407 -0.0484187 0
72.3052 -0.395828 0
72.7287 -0.0110326 0
73.2793 0.0846381 0
73.3267 0.451007 0
68.9379 0.407146 0
68.7899 1.07244 0
68.9435 -0.879122 0
69.4904 -0.250419 0
70.0783 2.06951 0
68.9651 1.58012 0
68.478 -2.12262 0
67.9791 -2.13374 0
76.3102 -0.293689 0
76.1269 -0.164098 0
75.624 0.199672 0
76.1329 0.306223 0
69.0008 2.87474 0
69.2914 1.97368 0
68.4844 -0.654702 0
68.3832 -0.238928 0
68.3255 0.222646 0
68.7707 0.724688 0
66.7686 -0.51117 0
67.4123 -0.90762 0
77.4371 -2.85258 0
75.7975 -1.4837 0
75.3806 2.3858 0
77.4557 1.9392 0
67.7325 -0.902794 0
67.8305 -0.318305 0
67.6801 0.451533 0
67.7533 0.988727 0
67.972 0.0997804 0
67.9497 0.555275 0
68.0439 -0.270702 0
68.1137 -0.0153502 0
66.0537 -0.0163424 0
64.3246 0.347293 0
72.5723 2.23594 0
75.2736 1.89907 0
74.4434 -1.80801 0
74.7829 -3.55301 0
67.491 1.69818 0
67.1788 0.994002 0
67.7907 -0.0454333 0
67.5157 0.000272891 0
69.6275 4.90949 0
68.0001 3.17469 0
69.0694 -3.01827 0
68.4285 -5.55347 0
67.2811 0.726318 0
67.6489 0.644039 0
74.8676 0.926254 0
74.7423 1.96673 0
76.2926 -1.13759 0
75.7291 -0.191837 0
71.6213 -0.16361 0
71.9188 -0.150168 0
72.9029 0.101726 0
72.8694 0.882151 0
76.8318 -0.0502314 0
76.6167 0.653251 0
77.2793 -0.177185 0
78.339 -0.442456 0
67.3672 0.176872 0
66.9768 -1.18804 0
67.829 1.16234 0
67.9712 1.57319 0