# vtk DataFile Version 3.0
Unstructured Grid for Triangles
ASCII
DATASET UNSTRUCTURED_GRID
POINTS 29612 DOUBLE
-0.000272397 1.23686e-05 0
-0.000295789 9.5838e-06 0
-0.000277865 -3.1235e-06 0
0.002024 0.0005 0
0.00203975 0.00049875 0
0.00205 0.0005 0
0.00203975 -0.00049875 0
0.002024 -0.0005 0
0.00205 -0.0005 0
0.0020295 0.0004975 0
0.0020295 -0.0004975 0
0.00201925 0.00049625 0
0.00201925 -0.00049625 0
-0.000529747 -0.000479887 0
-0.00055 -0.0005 0
-0.000524 -0.0005 0
-0.000505983 -0.000484325 0
-0.000498 -0.0005 0
-0.000472 -0.0005 0
-0.000483864 -0.000487761 0
-0.000446 -0.0005 0
-0.000459 -0.000484239 0
-0.000429453 -0.000424878 0
-0.000447486 -0.000420717 0
-0.000441829 -0.000436609 0
-0.000512578 -0.000462101 0
-0.000493078 -0.000453594 0
-0.00050706 -0.000439006 0
-0.000419243 -0.000477545 0
-0.000440307 -0.000471837 0
-0.00043691 -0.000486724 0
-0.000516129 -0.000420948 0
-0.000495355 -0.000415432 0
-0.000511646 -0.00040128 0
-0.000394697 -0.000481197 0
-0.000406302 -0.000455143 0
-0.000537257 -0.000388197 0
-0.000531099 -0.000407297 0
-0.000523982 -0.000388328 0
-0.000370063 -0.000472956 0
-0.000368 -0.0005 0
-0.00035308 -0.000485302 0
-0.0005072 -0.00037867 0
-0.000485506 -0.000383975 0
-0.000490949 -0.000359622 0
-0.000337127 -0.000484331 0
-0.000316 -0.0005 0
-0.000326495 -0.00047415 0
-0.00055 -0.00035 0
-0.000531201 -0.000370361 0
-0.000528367 -0.000346817 0
-0.000363898 -0.000448809 0
-0.000383315 -0.000460336 0
-3.26269e-05 -0.000415503 0
-5.99662e-05 -0.000409556 0
-5.46944e-05 -0.000429488 0
-0.000529747 0.000479887 0
-0.00055 0.0005 0
-0.00055 0.000475 0
-0.00055 0.00045 0
-0.000534834 0.000429171 0
-0.000526943 0.000442611 0
-0.000534026 0.000460176 0
-0.000531099 0.000407297 0
-0.000511672 0.000401178 0
-0.000516129 0.000420948 0
-0.000524 0.0005 0
-0.000505983 0.000484325 0
-0.000531201 0.000370361 0
-0.0005072 0.00037867 0
-0.000523982 0.000388328 0
-0.00048341 0.000469132 0
-0.000483679 0.000487539 0
-0.000528367 0.000346817 0
-0.00055 0.000325 0
-0.000525657 0.000328474 0
-0.000498 0.0005 0
-0.000530382 0.0003125 0
-0.000419243 0.000477545 0
-0.000440015 0.00047335 0
-0.000425917 0.000463678 0
-0.000435138 0.000262661 0
-0.000414982 0.000274462 0
-0.000435654 0.000285217 0
-0.000459 0.000484239 0
-0.000436852 0.000487027 0
-0.000446 0.0005 0
-0.000533308 0.000292503 0
-0.00055 0.000275 0
-0.000523377 0.000276953 0
-0.000425282 0.000446352 0
-0.000409368 0.000435728 0
-0.000406302 0.000455143 0
0.002009 0.000495 0
0.001998 0.0005 0
0.00199875 0.00049375 0
0.0019885 0.0004925 0
0.001972 0.0005 0
0.00197825 0.00049125 0
0.001968 0.00049 0
0.00195775 0.00048875 0
0.001946 0.0005 0
0.0019475 0.0004875 0
0.00193725 0.00048625 0
0.00192 0.0005 0
0.001927 0.000485 0
0.00191675 0.00048375 0
0.0019065 0.0004825 0
0.001894 0.0005 0
0.00189625 0.00048125 0
0.001886 0.00048 0
0.001868 0.0005 0
0.00187575 0.00047875 0
0.0018655 0.0004775 0
0.00185515 0.00048575 0
0.001842 0.0005 0
0.001845 0.000475 0
0.00185525 0.00047625 0
0.00182564 0.0004829 0
0.001816 0.0005 0
0.0018245 0.0004725 0
0.00183475 0.00047375 0
0.00181425 0.00047125 0
0.00180295 0.000482657 0
0.00179 0.0005 0
0.00179375 0.00046875 0
0.001804 0.00047 0
0.00178168 0.000480619 0
0.001764 0.0005 0
0.00177325 0.00046625 0
0.0017835 0.0004675 0
0.00176428 0.000476631 0
0.001763 0.000465 0
0.001738 0.0005 0
0.001751 0.000484164 0
0.00175275 0.00046375 0
0.00174025 0.000475632 0
0.001712 0.0005 0
0.00172615 0.000478449 0
0.001722 0.00046 0
0.00173225 0.00046125 0
0.0017015 0.0004575 0
0.00171243 0.00047381 0
0.00169554 0.000479999 0
0.001686 0.0005 0
0.00167507 0.000479751 0
0.00168498 0.000464861 0
0.00166 0.0005 0
0.0016558 0.000471459 0
0.00167135 0.000462887 0
0.001681 0.000455 0
0.0016605 0.0004525 0
0.00167075 0.00045375 0
0.00164059 0.000461599 0
0.0016394 0.000479551 0
0.00162881 0.00046615 0
0.00162975 0.00044875 0
0.00165025 0.00045125 0
0.00164 0.00045 0
0.00161754 0.000458641 0
0.00161722 0.000478101 0
0.00159956 0.000458294 0
0.00160925 0.00044625 0
0.0016195 0.0004475 0
0.00157667 0.000460322 0
0.00158875 0.00044375 0
0.00159194 0.000480155 0
0.001599 0.000445 0
0.0015785 0.0004425 0
0.00155808 0.000456757 0
0.00155647 0.000476701 0
0.00154059 0.000466642 0
0.00153756 0.000450083 0
0.00154839 0.000450446 0
0.00156825 0.00044125 0
0.00151954 0.000480508 0
0.00154052 0.00048477 0
0.00153 0.0005 0
0.00154775 0.00043875 0
0.00152142 0.000456625 0
0.00152821 0.000445753 0
0.0015375 0.0004375 0
0.001504 0.0005 0
0.00149644 0.000485168 0
0.00151787 0.000443178 0
0.00152725 0.00043625 0
0.00150675 0.00043375 0
0.001517 0.000435 0
0.00148119 0.000450887 0
0.00148072 0.000475756 0
0.00146584 0.000463516 0
0.00150008 0.00046396 0
0.00149351 0.00044543 0
0.0015061 0.000446252 0
0.001476 0.00043 0
0.00148625 0.00043125 0
0.00146492 0.000482975 0
0.00144888 0.000473562 0
0.00146676 0.000444259 0
0.00145255 0.000453656 0
0.00145652 0.000438669 0
0.00141401 0.000479821 0
0.001426 0.0005 0
0.0014 0.0005 0
0.00144374 0.000438862 0
0.0014555 0.0004275 0
0.001435 0.000425 0
0.00144525 0.00042625 0
0.00142746 0.000438121 0
0.00141288 0.000443191 0
0.00141707 0.000432778 0
0.0013921 0.000438992 0
0.00140355 0.00045932 0
0.00138302 0.00045922 0
0.00142912 0.000458869 0
0.00140592 0.000430037 0
0.0014145 0.0004225 0
0.00136458 0.00045869 0
0.00137106 0.00044063 0
0.001394 0.00042 0
0.00138259 0.000428915 0
0.00137484 0.000477094 0
0.00139166 0.000478902 0
0.0013586 0.000478984 0
0.00133449 0.000478649 0
0.00134717 0.000461848 0
0.00137256 0.000425134 0
0.00135323 0.000424541 0
0.00136325 0.00041625 0
0.00136122 0.00042876 0
0.00131206 0.000447284 0
0.00133168 0.000456738 0
0.00131773 0.000465243 0
0.00134756 0.000440343 0
0.00132747 0.000436463 0
0.00133483 0.000426786 0
0.00131081 0.00041867 0
0.00132382 0.000422815 0
0.00131507 0.00043122 0
0.00131059 0.000480123 0
0.0013325 0.0004125 0
0.0012915 0.0004075 0
0.0012982 0.000418199 0
0.00128915 0.000426216 0
0.00126366 0.000447574 0
0.00127331 0.000430908 0
0.00128781 0.000444872 0
0.00125336 0.000428376 0
0.00130218 0.000431077 0
0.00127894 0.000416344 0
0.00124774 0.000469608 0
0.00127668 0.000464148 0
0.00126591 0.00048331 0
0.00126722 0.000418415 0
0.00125768 0.000411931 0
0.00124326 0.000413546 0
0.0012505 0.0004025 0
0.00122408 0.000450118 0
0.00120276 0.000447432 0
0.0012139 0.000432235 0
0.00124336 0.000444132 0
0.00123056 0.000427595 0
0.00122977 0.000409049 0
0.0012185 0.000469217 0
0.00122676 0.000485947 0
0.00120525 0.000486094 0
0.00121479 0.000413153 0
0.00119547 0.000424221 0
0.00120249 0.000407448 0
0.00119925 0.00039625 0
0.00119346 0.000406114 0
0.00117479 0.000447279 0
0.00114726 0.000445259 0
0.0011571 0.000427814 0
0.00119443 0.000466611 0
0.00117447 0.000421596 0
0.00118421 0.00040752 0
0.00117409 0.000404437 0
0.00116775 0.000470073 0
0.001179 0.0004855 0
0.00115473 0.000484802 0
0.0011685 0.0003925 0
0.00117875 0.00039375 0
0.00115454 0.000400551 0
0.001148 0.00039 0
0.00115825 0.00039125 0
0.00111703 0.000423398 0
0.00113786 0.000426731 0
0.00112589 0.000443871 0
0.00113234 0.000406671 0
0.00114754 0.000413371 0
0.001106 0.000442326 0
0.00109703 0.000424261 0
0.0011275 0.0003875 0
0.00113775 0.00038875 0
0.00110211 0.000480875 0
0.00108244 0.000471951 0
0.00109312 0.000458413 0
0.00111755 0.000399116 0
0.0010944 0.000392972 0
0.00110415 0.000405876 0
0.00108839 0.000407536 0
0.00106472 0.000476905 0
0.00107274 0.000457868 0
0.00108011 0.000392415 0
0.00106885 0.000404365 0
0.00106625 0.000388708 0
0.00105286 0.000419254 0
0.00105055 0.000395469 0
0.00104215 0.000439764 0
0.00106346 0.000440629 0
0.00100945 0.000451249 0
0.00102825 0.00045614 0
0.00101189 0.000468452 0
0.00107625 0.00038125 0
0.00105575 0.00037875 0
0.001066 0.00038 0
0.00103352 0.000476905 0
0.00101803 0.00048465 0
0.00103685 0.000389398 0
0.0010245 0.00038825 0
0.00103525 0.00037625 0
0.00101092 0.000399779 0
0.00101267 0.000382619 0
0.00101382 0.00042025 0
0.00103187 0.000405286 0
0.00103359 0.000424605 0
0.000987383 0.00045447 0
0.000999411 0.000435161 0
0.0009744 0.000433145 0
0.0010045 0.0003725 0
0.00101475 0.00037375 0
0.000970845 0.000465215 0
0.000952614 0.000467664 0
0.000961768 0.000449944 0
0.00099729 0.000387704 0
0.000978901 0.00039598 0
0.000985823 0.000381492 0
0.000962289 0.000393709 0
0.000974259 0.000381279 0
0.00097375 0.00036875 0
0.000963045 0.000376631 0
0.000958 0.0005 0
0.000932 0.0005 0
0.000947542 0.00048457 0
0.000949675 0.000385245 0
0.000936214 0.000389472 0
0.000940006 0.000374906 0
0.000966411 0.000412573 0
0.000944241 0.000407079 0
0.000903569 0.000424993 0
0.000921701 0.000402409 0
0.000927439 0.000427744 0
0.000889795 0.000409067 0
0.000903071 0.00040248 0
0.000925447 0.000377721 0
0.00093275 0.00036375 0
0.000907708 0.000387127 0
0.000911303 0.000370839 0
0.000911933 0.000455145 0
0.000930678 0.000473279 0
0.000911886 0.000482603 0
0.000887724 0.000388076 0
0.000899595 0.000375116 0
0.000902 0.00036 0
0.000889241 0.00036954 0
0.000836977 0.000459472 0
0.000836223 0.000483578 0
0.000820467 0.000474142 0
0.000871227 0.000403557 0
0.000861 0.000355 0
0.000868368 0.000365714 0
0.00085484 0.00036588 0
0.000847735 0.000402845 0
0.000823121 0.000421599 0
0.000826582 0.000398147 0
0.000846943 0.00042454 0
0.000838832 0.000378613 0
0.000835569 0.000363808 0
0.000844098 0.00036291 0
0.00085075 0.00035375 0
0.000851465 0.000477164 0
0.00083025 0.00035125 0
0.000822824 0.000368659 0
0.00081446 0.000357362 0
0.000805884 0.000371794 0
0.000753471 0.000477524 0
0.000738313 0.000473927 0
0.000739102 0.000461526 0
0.00079826 0.000358588 0
0.000788607 0.000376287 0
0.000781733 0.000357987 0
0.000816783 0.000384471 0
0.000807975 0.000404095 0
0.000752138 0.000404775 0
0.000767682 0.000417043 0
0.000749617 0.000421803 0
0.000752903 0.000384008 0
0.000738293 0.000393136 0
0.000772614 0.000394048 0
0.00076863 0.000371878 0
0.000765995 0.000354121 0
0.000779 0.000345 0
0.00071811 0.000453059 0
0.000738069 0.000437967 0
0.000752085 0.000365972 0
0.000728123 0.000374583 0
0.000741845 0.000354664 0
[...]
CELL_DATA 58684
VECTORS velocity DOUBLE
65.2723 0.376251 0
70.8181 0.000420217 0
70.9797 0.000818459 0
70.8309 0.0168195 0
70.9681 -0.0244724 0
70.8564 -0.00843085 0
70.9922 0.00722654 0
67.7371 -0.00642754 0
67.719 -0.0120738 0
67.7221 -0.00683367 0
67.789 -0.0100957 0
67.8304 -0.496223 0
67.6959 -0.111875 0
67.903 -0.148678 0
67.6999 -0.164088 0
68.0774 -0.182554 0
67.7496 -0.0257742 0
68.2906 -0.128072 0
67.7295 -0.341681 0
68.6262 -0.0834021 0
67.781 -0.0183481 0
68.2859 -0.310419 0
72.6923 -1.57965 0
67.7716 -0.00108702 0
67.743 0.0237086 0
67.7739 0.00799217 0
67.7332 0.0944823 0
67.7213 0.0129816 0
67.7538 0.132699 0
67.7394 0.0588396 0
67.7987 0.0778797 0
67.7099 0.0371723 0
67.7195 0.0722717 0
68.0265 0.194385 0
67.8659 1.29488 0
67.8701 0.0895275 0
67.8351 0.107064 0
68.0779 0.396921 0
70.8233 -0.0339134 0
70.8254 -0.00130616 0
70.8556 0.000149536 0
70.8527 -0.0324711 0
70.8141 -0.0013789 0
70.8437 -0.00613502 0
70.8406 -0.0240186 0
70.8265 -0.0394638 0
70.8069 -0.0064069 0
70.8334 -0.0293403 0
70.8265 -0.044307 0
70.7867 -0.00413535 0
70.8265 -0.0356364 0
70.814 -0.0498793 0
70.8045 -0.049971 0
70.7811 -0.011107 0
70.8021 -0.0512806 0
70.7933 -0.0504063 0
70.7568 -0.00878236 0
70.7991 -0.0686424 0
70.7821 -0.0692003 0
70.77 -0.0517095 0
70.7549 -0.0106958 0
70.7865 -0.0821387 0
70.7506 -0.0580314 0
70.7534 -0.0137722 0
70.7857 -0.0902838 0
70.7724 -0.0998156 0
70.7617 -0.0734348 0
70.7421 -0.0126642 0
70.763 -0.102514 0
70.7527 -0.0754162 0
70.7261 -0.012361 0
70.7563 -0.107682 0
70.7504 -0.0895249 0
70.7584 -0.115273 0
70.71 -0.0138305 0
70.7265 -0.0801459 0
70.72 -0.0522027 0
70.687 -0.0180264 0
70.713 -0.103409 0
70.6863 -0.0807061 0
70.7015 -0.0840246 0
70.6536 -0.0161852 0
70.637 -0.0408426 0
70.6649 -0.0922649 0
70.6071 -0.046558 0
70.6282 -0.0703683 0
70.6643 -0.100034 0
70.6529 -0.109525 0
70.5682 -0.0679556 0
70.5767 -0.0917791 0
70.6027 -0.0884499 0
70.5906 -0.103115 0
70.5189 -0.0699526 0
70.5364 -0.0742102 0
70.5478 -0.102321 0
70.4821 -0.0940194 0
70.4589 -0.0579145 0
70.501 -0.0955984 0
70.4527 -0.0934443 0
70.385 -0.0635999 0
70.3243 -0.0719004 0
70.4168 -0.0847252 0
70.272 -0.0136254 0
70.3546 -0.0917749 0
70.2942 -0.0903452 0
70.3183 -0.0891144 0
70.1976 -0.0156342 0
70.2977 -0.0985503 0
70.2719 -0.105017 0
70.1336 -0.0664674 0
70.1631 -0.0660943 0
70.2054 -0.0817912 0
70.1732 -0.117341 0
70.0909 -0.0475748 0
70.1129 -0.121131 0
70.0912 -0.0794351 0
69.9867 -0.0197296 0
70.1176 -0.149933 0
70.0935 -0.164823 0
70.055 -0.170366 0
70.0227 -0.14537 0
70.0189 -0.0924148 0
70.0517 -0.19957 0
70.0197 -0.161514 0
70.0295 -0.228818 0
69.9962 -0.085646 0
70.0386 -0.21687 0
70.0264 -0.0999293 0
70.0444 -0.24156 0
70.0525 -0.301567 0
70.1237 -0.198698 0
70.0826 -0.280134 0
70.0516 -0.135692 0
70.137 -0.364658 0
70.0727 -0.109828 0
70.0916 -0.359079 0
70.2141 -0.435564 0
70.3059 -0.313474 0
70.3504 -0.388905 0
70.2355 -0.365696 0
70.2608 -0.405282 0
70.2475 -0.181743 0
70.3818 -0.478812 0
70.4395 -0.527834 0
70.6271 -0.353087 0
70.3909 -0.266529 0
70.4366 -0.457859 0
70.5052 -0.540238 0
70.486 -0.104677 0
70.7405 -0.575123 0
70.7535 -0.621806 0
70.9851 -0.35292 0
70.7338 -0.339093 0
70.8262 -0.516625 0
70.9042 -0.623457 0
70.8089 -0.10124 0
70.9425 -0.707994 0
71.119 -0.714887 0
71.241 -0.471345 0
71.1962 -0.559466 0
71.3928 -0.45369 0
71.2693 -0.697281 0
71.3563 -0.152264 0
71.3038 -0.639543 0
71.5602 -0.568767 0
71.5142 -0.164531 0
71.7419 -0.603656 0
71.8276 -0.507128 0
71.7809 -0.295304 0
71.8831 -0.188722 0
71.7578 -0.610169 0
71.8629 -0.633377 0
71.8402 -0.0965938 0
72.0294 -0.496805 0
72.1361 -0.470389 0
71.9699 -0.353279 0
72.0454 -0.184645 0
72.0979 -0.225153 0
72.2071 -0.496661 0
72.1664 -0.112748 0
72.3176 -0.381181 0
72.3558 -0.298257 0
72.3894 -0.339852 0
72.1906 0.000743734 0
72.502 -0.261113 0
72.3502 -0.236957 0
72.4509 -0.156372 0
72.5166 -0.166339 0
72.5623 -0.244467 0
72.5945 -0.228804 0
72.3427 -0.0642945 0
72.6154 -0.199183 0
72.6376 -0.198932 0
72.6334 -0.204554 0
72.6781 -0.0775734 0
72.6061 -0.184816 0
72.709 -0.22048 0
72.7664 -0.254968 0
72.702 -0.217104 0
72.7413 -0.277642 0
72.7241 -0.244177 0
72.6601 -0.0638653 0
72.7767 -0.336505 0
72.7849 -0.354885 0
73.2255 -0.126783 0
72.8717 -0.505861 0
72.8066 -0.298145 0
73.1247 -0.443384 0
73.1665 -0.63928 0
72.9779 -0.531106 0
72.8805 -0.610672 0
73.2757 -0.341568 0
73.0565 -0.781548 0
73.006 -0.817032 0
73.2368 -1.05866 0
73.684 -0.0109811 0
73.3761 -0.924328 0
73.2642 -1.18431 0
73.4828 -0.303433 0
73.3419 -1.29995 0
73.8589 -0.807426 0
73.441 -1.37699 0
74.2921 -0.495069 0
73.7602 -1.36825 0
73.6674 -1.60416 0
74.1411 -0.266201 0
73.9608 -1.74104 0
74.3954 -1.83186 0
74.2701 -1.4891 0
74.5166 -0.897889 0
74.4365 -2.18284 0
74.8453 -0.793081 0
75.2504 -0.126853 0
74.3672 -1.64621 0
74.7151 -2.16462 0
74.9971 -2.39002 0
75.3071 -0.656322 0
75.3234 -1.98386 0
75.7387 -2.17762 0
75.4934 -0.21443 0
76.0697 -2.03425 0
75.8559 -2.36613 0
75.5871 -1.67284 0
75.7518 -0.725469 0
75.9422 -0.821954 0
76.1991 -2.2635 0
76.0228 -0.0094888 0
76.4397 -2.37177 0
76.7355 -2.0901 0
76.6232 -2.27573 0
76.333 -0.372566 0
76.7221 -1.60602 0
77.2125 -1.43626 0
76.2665 -0.00751475 0
77.3403 -1.66859 0
77.4293 -1.12839 0
76.8982 -1.01807 0
76.4906 -0.391007 0
77.503 -1.3325 0
76.7298 -0.452128 0
76.3659 -0.017757 0
77.2541 -0.757134 0
77.6995 -0.848774 0
77.7879 -0.689666 0
76.5451 -0.0698594 0
77.4754 -0.308346 0
77.8075 -0.447701 0
76.3843 0.0350699 0
77.7652 -0.209978 0
77.7407 0.0453786 0
77.3774 0.0310853 0
76.1088 0.00431464 0
77.6528 0.317015 0
76.8892 0.281969 0
77.0479 0.408482 0
77.5286 0.330875 0
77.4045 0.376281 0
77.583 0.577071 0
76.1713 0.329418 0
77.6008 0.578783 0
77.2619 0.711158 0
77.4571 0.901858 0
76.1622 0.0853604 0
77.3638 1.1938 0
77.2491 1.28153 0
75.1053 0.134755 0
77.4439 1.07729 0
77.4269 1.24333 0
76.0278 1.11571 0
75.8786 0.54766 0
76.918 0.97471 0
77.3944 1.51865 0
75.3415 0.245765 0
77.1466 1.99711 0
77.3159 1.63381 0
77.3186 1.74884 0
74.7548 1.00296 0
76.4286 2.09283 0
77.1131 2.21992 0
74.7865 0.168714 0
76.9902 2.52982 0
76.9475 2.47158 0
76.2862 3.48265 0
73.3024 0.250459 0
76.9298 3.25195 0
75.6612 2.42716 0
74.4194 1.08888 0
74.2349 2.05799 0
76.8033 3.52708 0
76.2355 3.93723 0
73.6911 0.423881 0
76.0982 4.42804 0
70.9544 0.0283706 0
70.944 0.0018399 0
70.9535 -0.00946272 0
70.9465 0.0284674 0
70.8993 0.000689472 0
70.9104 -0.00227544 0
70.9038 0.0160086 0
70.8841 0.0345764 0
70.8555 0.00534793 0
70.8604 0.00885515 0
70.8541 0.0247643 0
70.8015 0.00323351 0
70.8152 0.0157301 0
70.8008 0.0273085 0
70.7873 0.0352162 0
70.7511 0.00958335 0
70.7548 0.0273115 0
70.7458 0.0340886 0
70.6983 0.00647082 0
70.7119 0.0336619 0
70.6958 0.0387759 0
70.6843 0.0474819 0
70.6807 0.0346262 0
70.6589 0.0272839 0
70.6368 0.0521616 0
70.6247 0.0392339 0
70.6161 0.0687481 0
70.595 0.0519397 0
70.5976 0.0688997 0
70.593 0.0339859 0
70.5661 0.0591012 0
70.5751 0.0829746 0
70.5609 0.0369019 0
70.5523 0.0951381 0
70.5408 0.0969844 0
70.5339 0.0722395 0
70.5356 0.0483922 0
70.5165 0.0758476 0
70.5082 0.0791069 0
70.5097 0.0493345 0
70.4968 0.129146 0
70.4597 0.0547673 0
70.4816 0.0939814 0
70.482 0.0644669 0
70.4638 0.118185 0
70.4847 0.139453 0
70.4454 0.0724227 0
70.4612 0.119785 0
70.4817 0.150031 0
70.4687 0.165233 0
70.4419 0.100984 0
70.441 0.11838 0
70.4753 0.159326 0
70.4938 0.219756 0
70.4329 0.112778 0
70.4888 0.185788 0
70.4963 0.226014 0
70.4083 0.123771 0
70.4228 0.15249 0
70.4893 0.242208 0
70.4762 0.234557 0
70.4144 0.150351 0
70.4249 0.107279 0
70.4439 0.20734 0
70.4063 0.0620046 0
70.4693 0.246333 0
70.5018 0.27913 0
70.4693 0.235235 0
70.4362 0.146655 0
70.4908 0.273967 0
70.4922 0.249229 0
70.4007 0.104307 0
70.4407 0.222063 0
70.4671 0.245015 0
70.4707 0.261076 0
70.4057 0.0692028 0
70.4326 0.189413 0
70.496 0.283561 0
70.4337 0.154372 0
70.4997 0.260514 0
70.4905 0.260154 0
70.4358 0.196574 0
70.402 0.0798504 0
70.4789 0.217396 0
70.5086 0.257764 0
70.3728 0.0592947 0
70.4974 0.245902 0
70.4384 0.182385 0
70.5064 0.195592 0
70.4383 0.151326 0
70.4999 0.22518 0
70.5117 0.215965 0
70.4011 0.0665459 0
70.4536 0.164641 0
70.5195 0.208915 0
70.472 0.143752 0
70.4078 0.075507 0
70.5209 0.177304 0
70.5191 0.162383 0
70.4064 0.041852 0
70.476 0.0740211 0
70.5247 0.125891 0
70.5382 0.155461 0
70.4558 0.0987779 0
70.5492 0.145721 0
70.5525 0.139026 0
70.5257 0.0593827 0
70.5256 0.104141 0
70.5729 0.143492 0
70.5657 0.13277 0
70.4592 0.0564093 0
70.581 0.143954 0
70.6168 0.161061 0
70.6172 0.0791597 0
70.593 0.140504 0
70.6672 0.199058 0
70.663 0.177038 0
70.5482 0.056324 0
70.6865 0.205564 0
70.7744 0.295372 0
70.6968 0.0854117 0
70.7689 0.267427 0
70.8372 0.12745 0
70.8414 0.313001 0
70.7996 0.164661 0
70.863 0.359644 0
70.9592 0.428934 0
70.9516 0.12491 0
70.9543 0.427688 0
71.1077 0.554666 0
71.2149 0.160194 0
70.9291 0.35675 0
71.1239 0.51486 0
71.2078 0.609561 0
71.1749 0.100101 0
71.2512 0.592284 0
71.5035 0.818685 0
71.4843 0.717378 0
71.5405 0.219524 0
71.706 0.793756 0
71.3934 0.268363 0
71.2952 0.57712 0
71.6501 0.844501 0
71.9489 1.00302 0
71.9758 1.05075 0
71.4741 0.00780557 0
72.2688 1.22915 0
72.2977 1.19335 0
72.4437 1.05645 0
72.4355 0.491904 0
72.7419 0.507867 0
72.4558 1.18927 0
72.0211 0.302916 0
72.8113 1.29801 0
72.7864 1.28414 0
72.8975 1.13693 0
72.74 0.31917 0
73.0663 1.2264 0
73.4861 1.51888 0
73.1636 0.522974 0
73.0453 0.574845 0
73.3832 1.1876 0
73.8399 1.44514 0
72.8161 0.354997 0
73.9445 1.52544 0
74.0481 1.38656 0
73.5974 0.237572 0
74.412 1.41496 0
74.4998 1.32841 0
74.5694 0.970366 0
74.0417 0.433819 0
74.0214 0.535184 0
74.4046 1.20414 0
73.7846 0.370093 0
74.8009 1.32287 0
74.9055 1.13979 0
74.7845 0.907489 0
74.1851 0.149761 0
75.1598 0.960571 0
75.1688 0.920906 0
74.7844 0.553311 0
75.0916 0.625632 0
74.7596 0.427094 0
75.2091 0.794345 0
74.5488 0.304402 0
75.353 0.733431 0
75.3766 0.66587 0
74.5523 0.221482 0
75.3168 0.545071 0
75.4471 0.507914 0
75.3955 0.534645 0
75.0535 0.165119 0
75.4551 0.435788 0
75.4452 0.428429 0
75.1881 0.455169 0
75.3387 0.404413 0
75.1362 0.279999 0
75.4067 0.413748 0
75.1474 0.0868107 0
75.3925 0.443967 0
75.4044 0.474494 0
75.0276 0.0662427 0
75.4104 0.479311 0
75.3505 0.615218 0
75.3568 0.680709 0
75.401 0.229587 0
75.3734 0.765839 0
75.4116 0.847869 0
75.3818 0.416835 0
75.6271 0.726288 0
75.5037 0.249744 0
75.4892 1.00746 0
75.5302 0.102389 0
75.5661 1.11767 0
75.6553 1.18941 0
75.4074 0.0591171 0
75.7541 1.05307 0
75.9532 1.46467 0
76.1914 1.48471 0
75.7103 0.245891 0
76.0749 1.40738 0
76.4077 1.67375 0
75.8642 0.935748 0
76.6307 1.00952 0
75.8277 0.209285 0
76.2761 1.4339 0
75.912 0.0898531 0
76.8351 1.71889 0
76.9586 1.53061 0
75.787 0.0668745 0
76.8852 1.09762 0
77.2603 1.29326 0
77.602 1.16201 0
76.1324 0.0438692 0
77.7799 0.967425 0
77.8832 0.768615 0
76.3272 0.0188009 0
77.928 0.807305 0
77.3261 0.0351984 0
76.393 0.258533 0
76.1816 0.221336 0
78.0922 0.463073 0
78.0054 -0.106602 0
78.3563 -0.260272 0
76.0182 0.00394789 0
77.8297 -0.621828 0
78.3094 -1.05616 0
76.1221 -0.0282593 0
77.6566 -0.626112 0
78.2695 -1.6104 0
77.2171 -1.11854 0
76.2115 -0.341839 0
78.1394 -1.91056 0
77.9829 -2.2213 0
77.0694 -0.536494 0
76.7059 -2.30766 0
75.2671 -1.88706 0
77.8895 -2.21581 0
75.3848 -0.267016 0
77.6445 -3.03655 0
75.6084 4.84249 0
76.0228 4.35113 0
72.5666 1.34142 0
75.5731 4.80246 0
74.1785 4.53371 0
75.0352 5.2692 0
72.9548 0.530548 0
74.484 5.42672 0
73.8032 5.41295 0
72.1167 0.688686 0
73.7752 5.71236 0
77.5724 -3.33297 0
75.5733 -0.157931 0
77.3714 -3.5903 0
76.5761 -3.8717 0
76.0852 -3.32472 0
75.0157 -0.193115 0
76.6289 -4.35975 0
73.0722 5.32149 0
76.0002 -5.2063 0
74.8953 -1.01198 0
75.8194 -5.01828 0
75.0673 -5.70185 0
71.3698 1.66586 0
74.833 -5.55099 0
75.911 -3.11085 0
75.348 -5.05342 0
74.0843 -3.70784 0
73.4187 -0.625157 0
74.7158 -5.09565 0
74.1712 -5.33855 0
72.6546 5.58972 0
74.1886 -5.42305 0
74.0418 -0.326101 0
73.5108 -5.60139 0
73.018 -6.07908 0
72.9719 -0.406683 0
72.3003 -6.14435 0
72.7709 -4.56706 0
71.4546 -0.491923 0
71.6512 -6.21406 0
71.7939 -3.5351 0
72.9118 -2.79454 0
72.1512 -5.40049 0
71.3453 -5.63228 0
73.1888 3.00146 0
70.7751 0.382999 0
72.7408 2.0487 0
71.8962 -0.0463584 0
70.9672 -6.01388 0
72.4887 5.31567 0
70.6334 0.277335 0
71.9975 4.56486 0
70.3891 -5.95699 0
71.5642 -1.27679 0
69.9267 -4.37809 0
71.9922 6.00923 0
69.8728 1.53574 0
71.9737 5.93766 0
70.528 5.13666 0
70.0441 0.306127 0
71.0451 5.33698 0
70.2947 -4.56601 0
71.258 -0.373853 0
69.8144 -6.07517 0
69.8748 -5.87548 0
71.2444 5.70425 0
69.9756 5.55702 0
69.57 0.0297217 0
70.6693 5.69026 0
69.308 3.69002 0
69.6077 1.75146 0
69.1669 -6.00854 0
69.7927 -0.843516 0
69.4238 -5.90634 0
69.0903 5.82381 0
68.7599 -5.55808 0
69.1624 -0.829012 0
68.999 -2.55206 0
68.0114 -5.30344 0
69.9964 -3.00725 0
67.8693 -5.11779 0
68.824 -0.226141 0
67.2453 -4.90916 0
68.7732 2.18966 0
69.0873 0.348572 0
68.8195 4.98747 0
68.7045 0.0866025 0
68.6214 5.75973 0
68.5143 5.46784 0
68.4787 0.155073 0
67.9855 4.84634 0
68.346 0.122247 0
68.1746 -4.63817 0
68.8312 -0.431098 0
69.2092 4.31944 0
67.8617 0.961008 0
67.7827 4.59293 0
67.1925 -4.90427 0
68.9378 -0.185202 0
66.0502 -4.13393 0
67.8467 -0.400743 0
66.5752 -4.15556 0
68.3153 1.96826 0
67.7909 0.0483482 0
68.6758 -3.80768 0
67.7779 -0.0279957 0
66.165 -3.89479 0
67.3264 4.19223 0
67.2134 -3.07562 0
67.7702 -0.12214 0
66.4007 -3.35082 0
67.9468 2.38805 0
66.4529 1.56442 0
66.9689 3.66851 0
67.689 -1.01318 0
66.3187 -3.67723 0
67.7324 0.430839 0
66.8891 4.79899 0
67.6476 -1.74464 0
67.7872 -0.00994327 0
66.1108 -3.35075 0
66.782 4.3832 0
67.822 0.922482 0
66.6889 3.50605 0
66.5289 3.4425 0
67.7972 0.40655 0
65.988 3.09794 0
65.5067 -2.93299 0
67.7882 -0.204853 0
65.2552 -2.94801 0
66.9615 -1.3657 0
67.8115 -0.0840561 0
64.978 -1.98039 0
65.9604 3.81798 0
67.8114 0.813001 0
66.8574 2.50807 0
65.3647 -1.75195 0
67.7907 -0.282455 0
64.8712 -1.62587 0
65.1173 2.83778 0
67.8461 0.336028 0
65.386 2.71086 0
65.615 2.23032 0
67.8034 0.0378575 0
65.0495 2.36859 0
65.7837 -0.994354 0
67.7793 -0.576718 0
65.2423 -0.879194 0
64.3959 -0.506405 0
67.3033 -0.663478 0
64.5843 -0.406362 0
67.1216 0.880622 0
67.8147 0.0969198 0
66.5846 1.89576 0
64.9727 1.90249 0
67.7695 0.13387 0
64.5252 1.28837 0
67.546 -0.152926 0
67.8012 -0.0300449 0
64.4742 -0.0354329 0
64.8234 0.0888796 0
67.8407 -0.019698 0
66.4583 0.340076 0
65.1131 0.524312 0
67.823 -0.0145318 0
67.2765 -4.09824 0
67.7767 -0.455316 0
67.7725 0.0396573 0
68.0996 4.98065 0
68.3787 -5.53174 0
70.464 -0.718972 0
69.437 0.764887 0
70.4623 5.97383 0
67.7757 0.28811 0
65.6083 3.66028 0
65.0732 -1.99126 0
67.7305 -0.108606 0
67.7219 -0.62358 0
67.5301 -2.64599 0
67.7832 1.05895 0
67.873 0.14045 0
67.8472 0.0388741 0
64.9086 1.67184 0
68.6594 0.362033 0
68.1238 1.34604 0
68.2438 -1.05436 0
69.2026 -0.544843 0
72.9848 -0.913572 0
72.6603 -6.02144 0
74.0205 5.42557 0
72.7036 0.311181 0
67.7395 1.49699 0
69.0787 5.61145 0
68.1184 -5.06508 0
68.5764 -1.74477 0
67.1427 -1.05883 0
65.6573 -0.0361128 0
66.8469 4.31119 0
67.9346 1.59459 0
67.7826 -1.42217 0
65.5771 -3.34443 0
77.1674 -4.01963 0
74.7955 -0.480836 0
74.377 0.541216 0
76.9352 2.96991 0
67.7561 -0.990888 0
67.7461 -0.00622852 0
67.715 0.106508 0
68.4527 0.614285 0
71.214 0.505753 0
71.0437 2.88697 0
69.8871 -1.50724 0
71.986 -1.26941 0
70.3647 3.49164 0
72.2964 5.65288 0
71.3632 -6.15726 0
70.792 -1.41224 0
73.4447 1.11705 0
74.2497 3.4547 0
73.3236 -2.04202 0
74.0634 -0.0218559 0
76.1216 -0.07838 0
78.3863 -0.513227 0
77.4274 0.931677 0
75.5139 0.0155162 0
75.9002 0.0084371 0
77.0207 1.60609 0
77.6222 0.0541078 0
76.4836 0.035406 0
68.4495 -1.093 0
68.0388 -0.537637 0
68.0907 1.15615 0
68.6082 0.739178 0
67.9846 1.27108 0
67.7733 0.147624 0
67.778 -0.029666 0
67.8818 -1.18272 0
75.315 0.68248 0
76.1505 1.38049 0
75.7154 -0.752403 0
75.7448 -0.0887945 0
66.4864 -0.637452 0
67.8629 -0.110495 0
67.5621 -0.422621 0
67.8348 -0.320174 0
67.8067 0.127052 0
67.7841 1.21468 0
75.7248 1.28312 0
75.6279 0.172113 0
76.3382 -0.00735012 0
77.328 -1.68785 0
70.2169 -0.0274633 0
69.7307 -2.13692 0
70.4686 1.30981 0
69.5775 0.34353 0
67.8459 3.0576 0
67.4534 5.25393 0
67.1971 -4.48647 0
68.0394 -2.36146 0
68.2862 -1.56417 0
67.5121 -1.64158 0
67.9029 3.46763 0
68.0384 1.74028 0
76.4575 0.0558423 0
76.2022 0.124317 0
76.1284 0.0320076 0
76.8107 0.744537 0
68.9369 -3.909 0
69.6619 -3.79944 0
69.5602 3.36166 0
69.9455 5.96533 0
68.5195 -2.95389 0
69.2744 -1.77347 0
69.2276 2.33563 0
68.6644 1.1896 0
75.3665 0.546446 0
75.2868 0.105006 0
75.833 -0.0171565 0
75.4805 -2.36315 0
67.4715 0.981337 0
67.8136 0.0279166 0
76.4133 -0.0708681 0
77.2219 -0.217596 0
76.135 0.485522 0
75.6897 0.0633508 0
68.3087 -0.759848 0
68.014 -1.17757 0
68.6075 1.35297 0
67.9708 0.89488 0
67.7956 -0.0630309 0
67.8685 -0.854683 0
67.742 0.370757 0
67.7661 0.0454482 0
65.2091 1.40608 0
67.24 1.2706 0
73.8762 -2.29509 0
76.1589 -4.77577 0
76.4542 3.85009 0
73.5769 1.56743 0
67.093 -1.62066 0
65.5763 -2.03662 0
74.8497 0.145829 0
75.3704 0.581505 0
73.781 0.136156 0
75.1062 1.02285 0
74.2212 -1.79514 0
74.389 -0.256564 0
73.0833 -0.930185 0
73.44 -0.0133371 0
76.0623 -0.363187 0
76.3298 -1.10008 0
75.4981 0.34737 0
75.3665 0.00721874 0
67.8433 0.14678 0
67.736 0.706016 0
66.8506 0.46254 0
65.3788 0.749572 0
67.8424 -0.222136 0
67.7974 -0.0876483 0
67.5082 0.37093 0
67.4517 -0.587197 0
78.0505 -1.97668 0
75.6911 -1.22623 0
76.129 1.57789 0
77.3546 1.36632 0
67.7206 -0.0775685 0
67.8139 -0.469916 0
67.7405 0.0261988 0
67.9807 0.316878 0
75.0827 -0.407322 0
74.9778 -1.10426 0
75.2453 0.23398 0
74.9512 0.0909959 0
73.3385 0.375069 0
73.7215 1.2188 0
72.7935 -0.372166 0
72.8463 -0.131298 0
68.1001 -0.861312 0
68.7075 -1.62233 0
68.3682 1.27063 0
68.1192 1.11288 0
68.6755 2.20784 0
67.6255 1.55752 0
67.8861 -1.48742 0
68.2993 -2.07452 0
76.6345 -0.101594 0
77.1767 1.24487 0
77.662 0.360453 0
76.9767 0.619972 0
67.6553 -1.07974 0
67.6968 -1.26548 0
67.7801 1.26213 0
67.4617 1.2041 0
73.2301 1.50235 0
72.536 0.443257 0
72.4912 -0.0670676 0
72.6788 -0.214916 0
72.6191 2.93803 0
74.0551 4.83313 0
73.4064 -6.0358 0
73.2816 -2.42332 0
65.9599 -2.44277 0
67.4929 -2.5593 0
72.3462 -2.229 0
72.7594 -0.812616 0
71.6826 0.33796 0
73.7373 2.14673 0
65.819 3.50113 0
67.0871 2.11399 0
73.8557 -0.0907982 0
73.8683 -1.0307 0
74.7781 0.350553 0
74.6116 0.116539 0
75.076 -0.257733 0
74.9691 -1.08468 0
75.1545 1.44722 0
74.5072 0.204587 0
71.272 1.01881 0
70.0746 0.268953 0
70.7858 -0.255337 0
71.1926 -2.27145 0
76.0395 0.593813 0
75.878 1.24166 0
77.6548 -0.967506 0
77.0113 0.0977443 0
70.5468 -2.79208 0
71.2822 -1.3317 0
70.8393 1.92708 0
72.6222 4.1318 0
71.9409 0.911971 0
71.832 0.160106 0
72.3636 -0.0682577 0
72.4024 -0.327575 0
72.9849 -0.198904 0
73.2537 -0.00538999 0
74.1035 0.179533 0
73.7555 0.963824 0
69.069 0.386576 0
68.9271 1.00067 0
69.0292 -0.884025 0
69.6031 -0.266413 0
70.1838 2.07607 0
69.0928 1.49943 0
68.5548 -2.15201 0
68.0782 -2.10313 0
76.1545 -0.228815 0
75.9851 -0.131023 0
75.8127 0.289626 0
76.4932 0.557507 0
69.1177 2.85607 0
69.4184 1.95455 0
68.5742 -0.624976 0
68.4678 -0.230277 0
68.4507 0.219268 0
68.9028 0.68591 0
66.922 -0.569113 0
67.5448 -1.14838 0
77.6544 -2.78336 0
75.8068 -1.44766 0
75.1985 2.58107 0
77.1035 2.48886 0
67.7676 -1.03729 0
67.8076 -0.032998 0
67.7346 0.140477 0
67.836 1.10816 0
67.9244 0.11671 0
67.945 0.734603 0
68.024 -0.365287 0
68.131 -0.0210141 0
66.2343 -0.0897974 0
64.4649 0.253586 0
72.5523 2.25391 0
75.1669 2.08665 0
74.4505 -1.83566 0
74.8396 -3.67813 0
67.6416 1.68114 0
67.3366 1.036 0
67.7979 -0.00164217 0
67.7512 0.0101524 0
69.6736 4.84338 0
68.1533 3.06818 0
69.155 -3.1823 0
68.4173 -5.73639 0
67.4894 0.883068 0
67.7873 0.530383 0
75.4956 0.441264 0
75.3681 0.740154 0
76.2025 -2.20384 0
76.0494 -0.35206 0
72.5118 -0.0829993 0
72.744 -0.0700923 0
73.3236 0.167567 0
72.8642 1.10953 0
77.4877 0.81964 0
76.733 1.1033 0
77.064 0.0462769 0
78.1934 0.161201 0
67.6106 0.200882 0
67.11 -1.23051 0
67.936 1.41545 0
68.1046 1.54757 0
68.1536 -1.62062 0
67.8912 -1.11358 0
67.8357 0.067537 0
67.6934 0.49191 0
70.0725 -4.09673 0
69.2043 -2.46215 0