# vtk DataFile Version 3.0
Unstructured Grid for Triangles
ASCII
DATASET UNSTRUCTURED_GRID
POINTS 29612 DOUBLE
-0.000272397 1.23686e-05 0
-0.000295789 9.5838e-06 0
-0.000277865 -3.1235e-06 0
0.002024 0.0005 0
0.00203975 0.00049875 0
0.00205 0.0005 0
0.00203975 -0.00049875 0
0.002024 -0.0005 0
0.00205 -0.0005 0
0.0020295 0.0004975 0
0.0020295 -0.0004975 0
0.00201925 0.00049625 0
0.00201925 -0.00049625 0
-0.000529747 -0.000479887 0
-0.00055 -0.0005 0
-0.000524 -0.0005 0
-0.000505983 -0.000484325 0
-0.000498 -0.0005 0
-0.000472 -0.0005 0
-0.000483864 -0.000487761 0
-0.000446 -0.0005 0
-0.000459 -0.000484239 0
-0.000429453 -0.000424878 0
-0.000447486 -0.000420717 0
-0.000441829 -0.000436609 0
-0.000512578 -0.000462101 0
-0.000493078 -0.000453594 0
-0.00050706 -0.000439006 0
-0.000419243 -0.000477545 0
-0.000440307 -0.000471837 0
-0.00043691 -0.000486724 0
-0.000516129 -0.000420948 0
-0.000495355 -0.000415432 0
-0.000511646 -0.00040128 0
-0.000394697 -0.000481197 0
-0.000406302 -0.000455143 0
-0.000537257 -0.000388197 0
-0.000531099 -0.000407297 0
-0.000523982 -0.000388328 0
-0.000370063 -0.000472956 0
-0.000368 -0.0005 0
-0.00035308 -0.000485302 0
-0.0005072 -0.00037867 0
-0.000485506 -0.000383975 0
-0.000490949 -0.000359622 0
-0.000337127 -0.000484331 0
-0.000316 -0.0005 0
-0.000326495 -0.00047415 0
-0.00055 -0.00035 0
-0.000531201 -0.000370361 0
-0.000528367 -0.000346817 0
-0.000363898 -0.000448809 0
-0.000383315 -0.000460336 0
-3.26269e-05 -0.000415503 0
-5.99662e-05 -0.000409556 0
-5.46944e-05 -0.000429488 0
-0.000529747 0.000479887 0
-0.00055 0.0005 0
-0.00055 0.000475 0
-0.00055 0.00045 0
-0.000534834 0.000429171 0
-0.000526943 0.000442611 0
-0.000534026 0.000460176 0
-0.000531099 0.000407297 0
-0.000511672 0.000401178 0
-0.000516129 0.000420948 0
-0.000524 0.0005 0
-0.000505983 0.000484325 0
-0.000531201 0.000370361 0
-0.0005072 0.00037867 0
-0.000523982 0.000388328 0
-0.00048341 0.000469132 0
-0.000483679 0.000487539 0
-0.000528367 0.000346817 0
-0.00055 0.000325 0
-0.000525657 0.000328474 0
-0.000498 0.0005 0
-0.000530382 0.0003125 0
-0.000419243 0.000477545 0
-0.000440015 0.00047335 0
-0.000425917 0.000463678 0
-0.000435138 0.000262661 0
-0.000414982 0.000274462 0
-0.000435654 0.000285217 0
-0.000459 0.000484239 0
-0.000436852 0.000487027 0
-0.000446 0.0005 0
-0.000533308 0.000292503 0
-0.00055 0.000275 0
-0.000523377 0.000276953 0
-0.000425282 0.000446352 0
-0.000409368 0.000435728 0
-0.000406302 0.000455143 0
0.002009 0.000495 0
0.001998 0.0005 0
0.00199875 0.00049375 0
0.0019885 0.0004925 0
0.001972 0.0005 0
0.00197825 0.00049125 0
0.001968 0.00049 0
0.00195775 0.00048875 0
0.001946 0.0005 0
0.0019475 0.0004875 0
0.00193725 0.00048625 0
0.00192 0.0005 0
0.001927 0.000485 0
0.00191675 0.00048375 0
0.0019065 0.0004825 0
0.001894 0.0005 0
0.00189625 0.00048125 0
0.001886 0.00048 0
0.001868 0.0005 0
0.00187575 0.00047875 0
0.0018655 0.0004775 0
0.00185515 0.00048575 0
0.001842 0.0005 0
0.001845 0.000475 0
0.00185525 0.00047625 0
0.00182564 0.0004829 0
0.001816 0.0005 0
0.0018245 0.0004725 0
0.00183475 0.00047375 0
0.00181425 0.00047125 0
0.00180295 0.000482657 0
0.00179 0.0005 0
0.00179375 0.00046875 0
0.001804 0.00047 0
0.00178168 0.000480619 0
0.001764 0.0005 0
0.00177325 0.00046625 0
0.0017835 0.0004675 0
0.00176428 0.000476631 0
0.001763 0.000465 0
0.001738 0.0005 0
0.001751 0.000484164 0
0.00175275 0.00046375 0
0.00174025 0.000475632 0
0.001712 0.0005 0
0.00172615 0.000478449 0
0.001722 0.00046 0
0.00173225 0.00046125 0
0.0017015 0.0004575 0
0.00171243 0.00047381 0
0.00169554 0.000479999 0
0.001686 0.0005 0
0.00167507 0.000479751 0
0.00168498 0.000464861 0
0.00166 0.0005 0
0.0016558 0.000471459 0
0.00167135 0.000462887 0
0.001681 0.000455 0
0.0016605 0.0004525 0
0.00167075 0.00045375 0
0.00164059 0.000461599 0
0.0016394 0.000479551 0
0.00162881 0.00046615 0
0.00162975 0.00044875 0
0.00165025 0.00045125 0
0.00164 0.00045 0
0.00161754 0.000458641 0
0.00161722 0.000478101 0
0.00159956 0.000458294 0
0.00160925 0.00044625 0
0.0016195 0.0004475 0
0.00157667 0.000460322 0
0.00158875 0.00044375 0
0.00159194 0.000480155 0
0.001599 0.000445 0
0.0015785 0.0004425 0
0.00155808 0.000456757 0
0.00155647 0.000476701 0
0.00154059 0.000466642 0
0.00153756 0.000450083 0
0.00154839 0.000450446 0
0.00156825 0.00044125 0
0.00151954 0.000480508 0
0.00154052 0.00048477 0
0.00153 0.0005 0
0.00154775 0.00043875 0
0.00152142 0.000456625 0
0.00152821 0.000445753 0
0.0015375 0.0004375 0
0.001504 0.0005 0
0.00149644 0.000485168 0
0.00151787 0.000443178 0
0.00152725 0.00043625 0
0.00150675 0.00043375 0
0.001517 0.000435 0
0.00148119 0.000450887 0
0.00148072 0.000475756 0
0.00146584 0.000463516 0
0.00150008 0.00046396 0
0.00149351 0.00044543 0
0.0015061 0.000446252 0
0.001476 0.00043 0
0.00148625 0.00043125 0
0.00146492 0.000482975 0
0.00144888 0.000473562 0
0.00146676 0.000444259 0
0.00145255 0.000453656 0
0.00145652 0.000438669 0
0.00141401 0.000479821 0
0.001426 0.0005 0
0.0014 0.0005 0
0.00144374 0.000438862 0
0.0014555 0.0004275 0
0.001435 0.000425 0
0.00144525 0.00042625 0
0.00142746 0.000438121 0
0.00141288 0.000443191 0
0.00141707 0.000432778 0
0.0013921 0.000438992 0
0.00140355 0.00045932 0
0.00138302 0.00045922 0
0.00142912 0.000458869 0
0.00140592 0.000430037 0
0.0014145 0.0004225 0
0.00136458 0.00045869 0
0.00137106 0.00044063 0
0.001394 0.00042 0
0.00138259 0.000428915 0
0.00137484 0.000477094 0
0.00139166 0.000478902 0
0.0013586 0.000478984 0
0.00133449 0.000478649 0
0.00134717 0.000461848 0
0.00137256 0.000425134 0
0.00135323 0.000424541 0
0.00136325 0.00041625 0
0.00136122 0.00042876 0
0.00131206 0.000447284 0
0.00133168 0.000456738 0
0.00131773 0.000465243 0
0.00134756 0.000440343 0
0.00132747 0.000436463 0
0.00133483 0.000426786 0
0.00131081 0.00041867 0
0.00132382 0.000422815 0
0.00131507 0.00043122 0
0.00131059 0.000480123 0
0.0013325 0.0004125 0
0.0012915 0.0004075 0
0.0012982 0.000418199 0
0.00128915 0.000426216 0
0.00126366 0.000447574 0
0.00127331 0.000430908 0
0.00128781 0.000444872 0
0.00125336 0.000428376 0
0.00130218 0.000431077 0
0.00127894 0.000416344 0
0.00124774 0.000469608 0
0.00127668 0.000464148 0
0.00126591 0.00048331 0
0.00126722 0.000418415 0
0.00125768 0.000411931 0
0.00124326 0.000413546 0
0.0012505 0.0004025 0
0.00122408 0.000450118 0
0.00120276 0.000447432 0
0.0012139 0.000432235 0
0.00124336 0.000444132 0
0.00123056 0.000427595 0
0.00122977 0.000409049 0
0.0012185 0.000469217 0
0.00122676 0.000485947 0
0.00120525 0.000486094 0
0.00121479 0.000413153 0
0.00119547 0.000424221 0
0.00120249 0.000407448 0
0.00119925 0.00039625 0
0.00119346 0.000406114 0
0.00117479 0.000447279 0
0.00114726 0.000445259 0
0.0011571 0.000427814 0
0.00119443 0.000466611 0
0.00117447 0.000421596 0
0.00118421 0.00040752 0
0.00117409 0.000404437 0
0.00116775 0.000470073 0
0.001179 0.0004855 0
0.00115473 0.000484802 0
0.0011685 0.0003925 0
0.00117875 0.00039375 0
0.00115454 0.000400551 0
0.001148 0.00039 0
0.00115825 0.00039125 0
0.00111703 0.000423398 0
0.00113786 0.000426731 0
0.00112589 0.000443871 0
0.00113234 0.000406671 0
0.00114754 0.000413371 0
0.001106 0.000442326 0
0.00109703 0.000424261 0
0.0011275 0.0003875 0
0.00113775 0.00038875 0
0.00110211 0.000480875 0
0.00108244 0.000471951 0
0.00109312 0.000458413 0
0.00111755 0.000399116 0
0.0010944 0.000392972 0
0.00110415 0.000405876 0
0.00108839 0.000407536 0
0.00106472 0.000476905 0
0.00107274 0.000457868 0
0.00108011 0.000392415 0
0.00106885 0.000404365 0
0.00106625 0.000388708 0
0.00105286 0.000419254 0
0.00105055 0.000395469 0
0.00104215 0.000439764 0
0.00106346 0.000440629 0
0.00100945 0.000451249 0
0.00102825 0.00045614 0
0.00101189 0.000468452 0
0.00107625 0.00038125 0
0.00105575 0.00037875 0
0.001066 0.00038 0
0.00103352 0.000476905 0
0.00101803 0.00048465 0
0.00103685 0.000389398 0
0.0010245 0.00038825 0
0.00103525 0.00037625 0
0.00101092 0.000399779 0
0.00101267 0.000382619 0
0.00101382 0.00042025 0
0.00103187 0.000405286 0
0.00103359 0.000424605 0
0.000987383 0.00045447 0
0.000999411 0.000435161 0
0.0009744 0.000433145 0
0.0010045 0.0003725 0
0.00101475 0.00037375 0
0.000970845 0.000465215 0
0.000952614 0.000467664 0
0.000961768 0.000449944 0
0.00099729 0.000387704 0
0.000978901 0.00039598 0
0.000985823 0.000381492 0
0.000962289 0.000393709 0
0.000974259 0.000381279 0
0.00097375 0.00036875 0
0.000963045 0.000376631 0
0.000958 0.0005 0
0.000932 0.0005 0
0.000947542 0.00048457 0
0.000949675 0.000385245 0
0.000936214 0.000389472 0
0.000940006 0.000374906 0
0.000966411 0.000412573 0
0.000944241 0.000407079 0
0.000903569 0.000424993 0
0.000921701 0.000402409 0
0.000927439 0.000427744 0
0.000889795 0.000409067 0
0.000903071 0.00040248 0
0.000925447 0.000377721 0
0.00093275 0.00036375 0
0.000907708 0.000387127 0
0.000911303 0.000370839 0
0.000911933 0.000455145 0
0.000930678 0.000473279 0
0.000911886 0.000482603 0
0.000887724 0.000388076 0
0.000899595 0.000375116 0
0.000902 0.00036 0
0.000889241 0.00036954 0
0.000836977 0.000459472 0
0.000836223 0.000483578 0
0.000820467 0.000474142 0
0.000871227 0.000403557 0
0.000861 0.000355 0
0.000868368 0.000365714 0
0.00085484 0.00036588 0
0.000847735 0.000402845 0
0.000823121 0.000421599 0
0.000826582 0.000398147 0
0.000846943 0.00042454 0
0.000838832 0.000378613 0
0.000835569 0.000363808 0
0.000844098 0.00036291 0
0.00085075 0.00035375 0
0.000851465 0.000477164 0
0.00083025 0.00035125 0
0.000822824 0.000368659 0
0.00081446 0.000357362 0
0.000805884 0.000371794 0
0.000753471 0.000477524 0
0.000738313 0.000473927 0
0.000739102 0.000461526 0
0.00079826 0.000358588 0
0.000788607 0.000376287 0
0.000781733 0.000357987 0
0.000816783 0.000384471 0
0.000807975 0.000404095 0
0.000752138 0.000404775 0
0.000767682 0.000417043 0
0.000749617 0.000421803 0
0.000752903 0.000384008 0
0.000738293 0.000393136 0
0.000772614 0.000394048 0
0.00076863 0.000371878 0
0.000765995 0.000354121 0
0.000779 0.000345 0
0.00071811 0.000453059 0
0.000738069 0.000437967 0
0.000752085 0.000365972 0
0.000728123 0.000374583 0
0.000741845 0.000354664 0
[...]
CELL_DATA 58684
VECTORS velocity DOUBLE
66.4041 0.379875 0
70.5295 -0.000135176 0
70.8949 0.000179338 0
70.5417 -0.00219583 0
70.9206 0.00269657 0
70.5478 -0.00388498 0
70.9436 0.0107019 0
67.9153 0.0169772 0
67.9787 -0.000800021 0
68.2202 0.014438 0
68.4109 0.016542 0
68.5277 -0.195797 0
68.0865 0.0221911 0
68.6349 -0.0635933 0
68.0546 0.0522057 0
68.9201 -0.0896487 0
67.9195 0.0327294 0
69.3769 -0.0986942 0
68.1488 0.0400751 0
69.8972 -0.0478548 0
67.8935 0.0246988 0
69.3254 -0.239589 0
74.0417 -1.36109 0
67.8312 0.00164266 0
67.8912 -0.0136463 0
67.8268 -0.00390765 0
68.0163 -0.0077294 0
67.9848 0.00351899 0
67.9649 -0.027214 0
68.2313 0.00201669 0
67.9099 -0.00661281 0
68.1488 0.0140851 0
67.9198 -0.0261769 0
68.8156 0.0845489 0
68.5281 0.755176 0
68.572 0.0479591 0
67.8979 0.0141689 0
68.9351 0.22403 0
70.5543 -0.000831765 0
70.5636 -7.56777e-05 0
70.5807 -0.0093296 0
70.5825 -0.00571345 0
70.5964 -0.000255464 0
70.6185 -0.0112745 0
70.6216 -0.0146033 0
70.6258 -0.00920344 0
70.643 -0.00022856 0
70.6642 -0.0212946 0
70.6655 -0.0168861 0
70.6848 -0.00104538 0
70.7186 -0.0283837 0
70.7217 -0.0311025 0
70.7272 -0.0185376 0
70.7495 -0.00175134 0
70.7806 -0.0426684 0
70.7802 -0.0316375 0
70.8067 -0.00408097 0
70.8619 -0.0636465 0
70.8634 -0.0590716 0
70.8712 -0.0339642 0
70.9136 -0.000770232 0
70.9379 -0.0786949 0
70.9693 -0.0517019 0
71.0264 -0.00281021 0
71.0542 -0.0951881 0
71.0592 -0.0889072 0
71.097 -0.0671467 0
71.128 -0.00297755 0
71.1487 -0.104175 0
71.1871 -0.0710485 0
71.2258 -0.00509005 0
71.2516 -0.117421 0
71.2822 -0.08644 0
71.3388 -0.14927 0
71.3586 -0.0024083 0
71.3928 -0.105415 0
71.4211 -0.0737481 0
71.4782 -0.0070106 0
71.5096 -0.147263 0
71.6233 -0.106411 0
71.5273 -0.116949 0
71.6169 -0.00529742 0
71.66 -0.075632 0
71.6391 -0.138202 0
71.7739 -0.0802227 0
71.7466 -0.0998193 0
71.7567 -0.141641 0
71.8109 -0.166812 0
71.883 -0.0902607 0
71.9416 -0.12128 0
71.8505 -0.118388 0
71.9146 -0.151151 0
71.9573 -0.0991755 0
71.9541 -0.11159 0
71.9895 -0.136341 0
72.056 -0.102496 0
71.9938 -0.0902647 0
72.0409 -0.11887 0
72.0645 -0.115648 0
72.0525 -0.075855 0
72.0721 -0.0499818 0
72.0723 -0.0809228 0
72.057 -0.0134788 0
72.0979 -0.0552125 0
72.0987 -0.0425143 0
72.1037 -0.0459136 0
72.0494 -0.00174626 0
72.1073 -0.0328862 0
72.1114 -0.021637 0
72.0449 0.00778175 0
72.0522 -0.00251317 0
72.0723 -0.0060724 0
72.0747 0.00992538 0
72.0184 0.0130074 0
72.0349 0.0131993 0
72.0189 0.00992032 0
71.9372 -0.00272514 0
72.0466 0.0216672 0
72.0267 0.0298417 0
71.9733 0.0153229 0
71.9415 -0.0105435 0
71.9563 0.00770856 0
71.9704 0.0153268 0
71.9216 -0.0308643 0
71.9324 -0.00832975 0
71.9215 -0.0155371 0
71.9128 -0.0216049 0
71.9129 -0.0327779 0
71.9107 -0.0265878 0
71.9032 -0.0742133 0
71.9659 -0.103263 0
71.9042 -0.121583 0
71.9255 -0.0654299 0
71.9236 -0.201889 0
71.9344 -0.0541689 0
71.8901 -0.169801 0
71.9507 -0.318971 0
72.0927 -0.267236 0
72.1501 -0.378693 0
72.0255 -0.269429 0
71.9848 -0.328047 0
72.0892 -0.179321 0
72.0913 -0.463252 0
72.1389 -0.548888 0
72.4395 -0.462953 0
72.2142 -0.322657 0
72.1376 -0.499839 0
72.2386 -0.620214 0
72.3362 -0.132396 0
72.4993 -0.768128 0
72.5037 -0.884775 0
72.9316 -0.567141 0
72.6661 -0.490433 0
72.6042 -0.790835 0
72.713 -0.938508 0
72.7386 -0.155356 0
72.753 -1.10096 0
73.0324 -1.20564 0
73.3377 -0.839118 0
73.1577 -0.979484 0
73.5777 -0.858392 0
73.2505 -1.27209 0
73.573 -0.298171 0
73.2926 -1.19098 0
73.7218 -1.13417 0
73.8284 -0.318083 0
74.0711 -1.27418 0
74.2556 -1.06686 0
74.2319 -0.601383 0
74.4218 -0.367275 0
74.0842 -1.30313 0
74.2931 -1.3877 0
74.3593 -0.187141 0
74.607 -1.10933 0
74.8483 -1.03076 0
74.5287 -0.733025 0
74.6849 -0.340777 0
74.7425 -0.389385 0
74.9843 -1.11997 0
74.81 -0.141254 0
75.2146 -0.765052 0
75.2742 -0.495284 0
75.3168 -0.604081 0
74.7902 0.00271682 0
75.4915 -0.221327 0
75.2265 -0.273535 0
75.2151 0.0823805 0
75.217 0.257936 0
75.655 -0.0825203 0
75.6397 0.0794106 0
74.9004 0.00951662 0
75.618 0.341642 0
75.6109 0.465978 0
75.5484 0.453627 0
74.7469 0.1771 0
75.3191 0.435537 0
75.4396 0.901554 0
74.9268 0.707878 0
75.0477 0.585988 0
75.2385 1.11855 0
75.3436 1.05467 0
74.735 0.142178 0
75.0948 1.33223 0
74.9854 1.19539 0
74.4276 0.16157 0
74.7482 1.33251 0
74.9065 0.817941 0
74.4565 0.618536 0
74.4241 0.771768 0
74.581 1.08868 0
74.5899 1.39842 0
74.4421 0.28597 0
74.2141 1.03808 0
74.3159 1.40395 0
73.9968 1.00106 0
74.4567 0.017725 0
74.2677 0.677043 0
74.0217 0.897474 0
74.4129 0.156523 0
73.9633 0.813551 0
74.2883 0.224053 0
73.9446 0.828057 0
74.5854 -0.0236022 0
73.9647 0.202205 0
73.9459 0.297058 0
74.5879 -0.00965678 0
73.9166 0.0994892 0
74.228 -0.368511 0
74.4253 -0.13649 0
74.6363 -0.166945 0
74.1752 -0.590327 0
74.9164 -0.264608 0
75.3066 -0.0490987 0
74.3283 -0.407375 0
74.3539 -0.767634 0
74.5606 -0.925824 0
75.2933 -0.294013 0
74.9729 -0.942083 0
75.2341 -1.17152 0
75.5111 -0.106386 0
75.5932 -1.23083 0
75.3339 -1.40722 0
75.3576 -0.926013 0
75.6882 -0.398455 0
75.8059 -0.484856 0
75.6894 -1.48298 0
76.0134 0.00136212 0
75.9296 -1.63736 0
76.2177 -1.4674 0
76.1131 -1.61408 0
76.2814 -0.253709 0
76.3645 -1.15596 0
76.7693 -1.06878 0
76.286 -0.00022928 0
76.8856 -1.29739 0
77.0634 -0.898774 0
76.6337 -0.721071 0
76.4213 -0.277828 0
77.0793 -1.06321 0
76.607 -0.327561 0
76.4354 -0.0167994 0
76.9513 -0.607687 0
77.2875 -0.701897 0
77.3833 -0.578768 0
76.5764 -0.0679973 0
77.2185 -0.299581 0
77.4103 -0.406422 0
76.4871 0.00909107 0
77.3944 -0.235883 0
77.39 -0.0606917 0
77.2013 -0.0564735 0
76.3216 0.00254845 0
77.3442 0.112652 0
76.9108 0.12403 0
77.0447 0.194091 0
77.2805 0.115613 0
77.2243 0.143285 0
77.3196 0.250077 0
76.4218 0.184538 0
77.3265 0.251671 0
77.1923 0.329076 0
77.3014 0.384067 0
76.3775 0.0472441 0
77.3377 0.564135 0
77.2923 0.650663 0
75.7013 0.096524 0
77.4076 0.433068 0
77.5033 0.590377 0
76.4792 0.723548 0
76.2458 0.35362 0
77.0699 0.540554 0
77.5644 0.804503 0
75.8736 0.174276 0
77.5233 1.17822 0
77.5716 0.77806 0
77.5924 0.881028 0
75.5451 0.763322 0
76.9592 1.34563 0
77.6592 1.35676 0
75.507 0.13571 0
77.5651 1.62167 0
77.5018 1.69531 0
77.1981 2.65986 0
74.4586 0.20669 0
77.7743 2.33916 0
76.5306 1.79628 0
75.3118 0.849379 0
75.3055 1.65815 0
77.7132 2.61538 0
77.3551 3.12515 0
74.7916 0.350486 0
77.2973 3.53566 0
70.9574 0.0020742 0
70.9687 0.000118956 0
70.9955 0.0129289 0
70.9981 0.00871477 0
71.0147 0.000200903 0
71.0415 0.0126273 0
71.0434 0.0130787 0
71.0489 0.00608604 0
71.0616 3.36132e-06 0
71.0751 0.0122686 0
71.0758 0.00651359 0
71.086 -4.54162e-05 0
71.0982 0.00915315 0
71.0989 0.00683674 0
71.1014 0.0016827 0
71.1091 -0.00068778 0
71.1149 0.00539042 0
71.1153 0.0013928 0
71.1237 -0.000621965 0
71.1284 0.00286042 0
71.1292 -0.00083507 0
71.132 -0.00442683 0
71.1316 -0.00349291 0
71.1349 -0.00506214 0
71.1416 -0.0113056 0
71.1397 -0.0105932 0
71.1406 -0.0190479 0
71.1427 -0.0141377 0
71.1377 -0.0207734 0
71.1373 -0.010751 0
71.141 -0.0162241 0
71.134 -0.0244122 0
71.135 -0.0113462 0
71.1333 -0.0241905 0
71.1346 -0.0224499 0
71.1339 -0.0149435 0
71.1337 -0.0126669 0
71.1371 -0.0151158 0
71.1405 -0.00846413 0
71.1349 -0.00750671 0
71.1486 -0.00173329 0
71.1512 0.000872064 0
71.1557 0.00450361 0
71.146 -0.000587512 0
71.1613 0.0131593 0
71.1881 0.0303607 0
71.2029 0.0260409 0
71.1832 0.0305883 0
71.2173 0.0492915 0
71.2222 0.0650511 0
71.2685 0.0510234 0
71.2475 0.0618948 0
71.2862 0.0874138 0
71.3308 0.14445 0
71.3432 0.0808976 0
71.3591 0.123359 0
71.4043 0.186797 0
71.4431 0.150086 0
71.3732 0.149663 0
71.4873 0.246627 0
71.4874 0.25578 0
71.5187 0.182678 0
71.5959 0.126041 0
71.6396 0.285733 0
71.4104 0.0703847 0
71.696 0.345019 0
71.8707 0.440026 0
71.7905 0.358211 0
71.724 0.208455 0
71.9293 0.472784 0
71.9708 0.415189 0
72.1108 0.230065 0
71.8861 0.395472 0
72.0791 0.475846 0
72.1694 0.534973 0
71.9794 0.126231 0
72.1454 0.397405 0
72.3768 0.625466 0
72.2306 0.317807 0
72.4414 0.545803 0
72.6069 0.642731 0
72.4905 0.484979 0
72.6774 0.186767 0
72.6782 0.565304 0
72.7928 0.645434 0
72.7638 0.162157 0
72.9002 0.674966 0
72.7259 0.501709 0
73.0575 0.521514 0
72.8327 0.380216 0
73.0888 0.678094 0
73.3544 0.681762 0
73.1824 0.174896 0
73.1632 0.499325 0
73.4752 0.668545 0
73.3542 0.446171 0
73.1385 0.218344 0
73.5381 0.548481 0
73.5954 0.485263 0
73.3746 0.0995535 0
73.5164 0.159425 0
73.6644 0.307871 0
73.7338 0.428551 0
73.4532 0.277105 0
73.7864 0.310486 0
73.8037 0.249048 0
73.5663 0.0424698 0
73.6704 0.147756 0
73.8132 0.114132 0
73.7657 0.0613997 0
73.4985 0.0684424 0
73.7774 0.0056925 0
73.8164 -0.0802104 0
73.5298 -0.0435351 0
73.7356 -0.0195369 0
73.7255 -0.202695 0
73.6699 -0.176572 0
73.5249 0.00647826 0
73.7005 -0.244993 0
73.5699 -0.398956 0
73.4284 -0.0679719 0
73.5479 -0.318079 0
73.3576 -0.120161 0
73.4335 -0.334239 0
73.3845 -0.151645 0
73.4368 -0.457941 0
73.3166 -0.425843 0
73.2478 -0.0922457 0
73.3242 -0.411528 0
73.1821 -0.414934 0
73.1383 -0.0481562 0
73.3252 -0.326991 0
73.1672 -0.278451 0
73.1086 -0.316031 0
73.1364 -0.0400353 0
73.0723 -0.209852 0
73.0019 -0.146216 0
73.0169 -0.0311667 0
73.1134 0.00764762 0
73.0172 0.104164 0
73.1146 -0.0273918 0
73.0621 -0.188875 0
73 0.0135181 0
73.0275 0.215375 0
73.0511 0.312362 0
73.1027 -0.00116951 0
73.145 0.538053 0
73.1522 0.571411 0
73.3312 0.620504 0
73.4382 0.272997 0
73.6508 0.319792 0
73.2823 0.673165 0
73.231 0.0999032 0
73.5081 0.892337 0
73.5284 0.881675 0
73.6951 0.824077 0
73.6884 0.210592 0
73.7758 0.959247 0
74.1966 1.29998 0
74.0231 0.393476 0
73.8988 0.409883 0
74.1615 0.987714 0
74.6058 1.29123 0
73.7204 0.228091 0
74.743 1.39103 0
74.8777 1.24274 0
74.4463 0.170272 0
75.3439 1.25573 0
75.4621 1.14585 0
75.5615 0.698445 0
74.9013 0.280958 0
74.8852 0.377801 0
75.3573 0.985249 0
74.6284 0.267559 0
75.8756 1.05479 0
76.0273 0.795696 0
75.8236 0.46713 0
75.0525 0.0706256 0
76.3541 0.399238 0
76.3708 0.295907 0
75.7809 0.184348 0
76.0791 0.021681 0
75.6884 0.0916576 0
76.4011 0.111966 0
75.4238 0.116466 0
76.5154 -0.211061 0
76.5564 -0.308515 0
75.4146 0.0602085 0
76.3718 -0.437772 0
76.445 -0.728159 0
76.4303 -0.633093 0
75.768 -0.0946491 0
76.1921 -0.960848 0
76.1387 -1.08681 0
76.1556 -0.312698 0
76.039 -0.682966 0
75.9274 -0.203035 0
75.8601 -1.23494 0
75.7766 -0.0731203 0
75.797 -1.1343 0
75.8149 -1.00791 0
75.7432 -0.0590847 0
75.923 -0.827411 0
75.3884 -0.876946 0
75.283 -0.767207 0
75.8218 -0.127012 0
75.244 -0.576931 0
75.2493 -0.558591 0
75.8958 -0.540212 0
75.5333 -0.104024 0
75.8298 -0.0753717 0
75.197 -0.246621 0
75.8351 -0.0214523 0
75.1583 0.0651379 0
75.1944 0.220095 0
75.8036 -0.0229017 0
75.5387 0.267244 0
75.3997 0.847599 0
75.5933 0.977705 0
75.8918 0.0575819 0
75.5729 0.92416 0
75.8289 1.39853 0
75.5745 0.281931 0
76.331 0.890497 0
75.9873 0.0980443 0
75.821 1.10295 0
76.0684 0.0520104 0
76.2769 1.6501 0
76.3924 1.5705 0
75.9864 0.0315812 0
76.5368 1.23783 0
76.7769 1.56807 0
77.183 1.56071 0
76.3211 0.0899427 0
77.4451 1.517 0
77.5715 1.309 0
76.53 0.143224 0
77.6948 1.45837 0
77.3756 0.506968 0
76.4402 0.338937 0
76.2704 0.212882 0
77.997 1.2343 0
77.9767 0.601668 0
78.4302 0.613595 0
76.2496 0.0041822 0
78.0526 0.101236 0
78.5855 -0.107083 0
76.3763 0.0149108 0
77.8207 0.0609382 0
78.6922 -0.648575 0
77.6828 -0.504726 0
76.553 -0.118735 0
78.6313 -0.97036 0
78.6067 -1.29233 0
77.2976 -0.0399628 0
77.4663 -1.61242 0
76.1719 -1.49125 0
78.4423 -1.40301 0
76.0067 -0.173127 0
78.477 -2.14339 0
76.9058 4.01985 0
77.257 3.49974 0
73.9559 1.13113 0
76.8898 4.03272 0
75.5931 3.90282 0
76.4446 4.49176 0
74.2322 0.442851 0
75.9711 4.70959 0
75.3529 4.77783 0
73.5488 0.585332 0
75.3521 5.01901 0
78.4546 -2.49132 0
76.1105 -0.0921411 0
78.3322 -2.7642 0
77.5974 -3.13659 0
77.087 -2.65529 0
75.7604 -0.153177 0
77.7492 -3.58884 0
74.6619 4.75822 0
77.297 -4.47154 0
75.7839 -0.801557 0
77.1384 -4.32801 0
76.4705 -5.01755 0
72.9201 1.44637 0
76.2721 -4.9369 0
76.9685 -2.5303 0
76.7385 -4.43619 0
75.4413 -3.25404 0
74.5999 -0.521615 0
76.1181 -4.52215 0
75.6503 -4.81938 0
74.2946 5.02904 0
75.665 -4.86685 0
75.0916 -0.268577 0
75.0344 -5.11166 0
74.5927 -5.58175 0
74.2491 -0.343414 0
73.913 -5.70569 0
74.2767 -4.14922 0
72.9598 -0.42626 0
73.2959 -5.80444 0
73.3169 -3.21648 0
74.2989 -2.45717 0
73.7421 -4.98445 0
72.9591 -5.26615 0
74.6054 2.56402 0
72.3602 0.327308 0
74.1216 1.73784 0
73.3555 -0.0413587 0
72.6186 -5.66097 0
74.1472 4.80484 0
72.2273 0.235441 0
73.6151 4.11738 0
72.0419 -5.63575 0
73.0477 -1.13082 0
71.5169 -4.08266 0
73.708 5.47531 0
71.447 1.29752 0
73.6893 5.42431 0
72.1979 4.75564 0
71.6285 0.260025 0
72.7601 4.92297 0
71.8931 -4.25018 0
72.7825 -0.338548 0
71.4581 -5.76686 0
71.5109 -5.57878 0
72.9554 5.25887 0
71.6618 5.19052 0
71.1165 0.0105208 0
72.3803 5.27938 0
70.8776 3.33535 0
71.1663 1.47481 0
70.7929 -5.72181 0
71.3177 -0.72984 0
71.0487 -5.62196 0
70.8015 5.49053 0
70.3563 -5.28101 0
70.6349 -0.676531 0
70.4362 -2.17598 0
69.577 -5.04658 0
71.5347 -2.71839 0
69.4196 -4.85266 0
70.2108 -0.163338 0
68.759 -4.65676 0
70.2034 1.81778 0
70.5874 0.271181 0
70.4802 4.65992 0
70.0279 0.0511111 0
70.3192 5.43876 0
70.1778 5.17226 0
69.7014 0.114024 0
69.5789 4.54953 0
69.4166 0.0892312 0
69.6778 -4.3466 0
70.2291 -0.327332 0
70.8126 3.97624 0
68.2697 0.305047 0
69.3551 4.31578 0
68.6852 -4.66003 0
70.3312 -0.152308 0
67.4778 -3.89413 0
68.0492 0.0861812 0
67.9723 -3.88795 0
69.5617 1.63461 0
67.8153 -0.0055334 0
70.1597 -3.48315 0
67.8262 0.0399228 0
67.5423 -3.6499 0
68.8344 3.91773 0
68.495 -2.7705 0
67.923 0.0653042 0
67.7115 -3.08234 0
69.177 2.04614 0
67.4972 1.43684 0
68.4031 3.38415 0
68.1762 -0.443658 0
67.6797 -3.43797 0
67.9628 0.0464394 0
68.4524 4.5506 0
68.6431 -1.43408 0
67.812 0.0219184 0
67.3882 -3.10273 0
68.3194 4.13909 0
68.1451 0.309966 0
68.036 3.25558 0
67.9193 3.21506 0
67.9605 0.0586662 0
67.3091 2.88713 0
66.8345 -2.74482 0
67.9363 0.077135 0
66.5824 -2.75479 0
67.8982 -1.16533 0
67.8736 0.0617307 0
66.2378 -1.83404 0
67.3626 3.60856 0
68.1624 0.31479 0
67.9971 2.27634 0
66.5654 -1.60503 0
67.9678 0.0632818 0
66.1077 -1.49542 0
66.4755 2.68894 0
68.0066 0.124336 0
66.6956 2.55241 0
66.8756 2.08709 0
67.8094 0.0328109 0
66.3549 2.24746 0
66.8492 -0.86397 0
68.0816 -0.0722467 0
66.3912 -0.771347 0
65.6605 -0.442487 0
67.9915 -0.461198 0
65.8178 -0.348078 0
67.903 0.798572 0
67.8931 0.0585996 0
67.6893 1.7438 0
66.252 1.81534 0
67.9881 0.129482 0
65.8194 1.24041 0
68.0171 0.0162253 0
67.8499 0.0477845 0
65.7223 -0.00111447 0
66.022 0.113824 0
67.8925 0.0677215 0
67.3688 0.355323 0
66.2846 0.525024 0
67.8664 0.0498676 0
68.6675 -3.80982 0
68.1117 0.0512358 0
67.8643 -0.0120621 0
69.7276 4.70123 0
69.9714 -5.2612 0
72.0138 -0.642751 0
70.9929 0.616044 0
72.2075 5.57052 0
67.9093 0.0594762 0
67.0098 3.46667 0
66.309 -1.82519 0
67.8861 0.0737727 0
68.1064 0.0214019 0
68.7493 -2.29501 0
68.3024 0.372391 0
67.8829 0.0217639 0
67.9063 0.0756927 0
66.1567 1.59279 0
70 0.287434 0
69.1245 1.07212 0
69.3138 -0.795924 0
70.6796 -0.44787 0
74.262 -0.778803 0
74.2573 -5.56446 0
75.5654 4.75859 0
74.016 0.256842 0
68.5792 1.20004 0
70.784 5.29035 0
69.6575 -4.80071 0
69.8733 -1.39339 0
67.9235 -0.819535 0
66.7261 -0.00236934 0
68.3672 4.07276 0
68.8605 1.33862 0
68.6107 -1.048 0
66.8852 -3.1167 0
78.174 -3.21836 0
75.6332 -0.375062 0
75.2681 0.414027 0
77.6738 2.0015 0
68.2615 -0.242586 0
67.9118 0.00338509 0
67.9678 -0.0247758 0
69.6349 0.499345 0
72.76 0.429353 0
72.657 2.5541 0
71.4216 -1.31126 0
73.4278 -1.11616 0
72.0036 3.14901 0
73.9632 5.10947 0
73.0098 -5.76987 0
72.3356 -1.25999 0
74.5998 0.914222 0
75.502 2.89164 0
74.6053 -1.75774 0
75.0699 -0.0218579 0
76.4211 0.0166741 0
78.5112 0.357346 0
77.3065 0.383591 0
75.9672 0.0131888 0
76.0782 0.00216974 0
76.4826 1.72775 0
77.3202 -0.0562649 0
76.5584 0.0117605 0
69.6242 -0.864891 0
68.9188 -0.343654 0
69.0269 0.844978 0
69.8972 0.612267 0
68.7977 0.85262 0
67.9306 -0.0118606 0
67.8297 0.0476749 0
68.5883 -0.59434 0
75.9046 0.494407 0
76.6365 0.920693 0
76.3374 -0.488199 0
76.1922 -0.0477555 0
67.3747 -0.508221 0
67.8966 0.0665051 0
68.0041 -0.0932142 0
67.9765 0.0654958 0
67.8779 0.000195684 0
68.3335 0.545042 0
75.2532 0.473263 0
75.8564 -0.0117961 0
76.3695 -0.000414327 0
76.8545 -1.2733 0
71.7705 -0.0131534 0
71.2339 -1.85774 0
72.0665 1.13391 0
71.1401 0.282951 0
69.1563 2.72782 0
69.0677 4.98262 0
68.6484 -4.22873 0
69.203 -2.00803 0
69.4357 -1.26389 0
68.446 -1.33073 0
69.3023 3.11132 0
69.1145 1.47323 0
76.56 0.0149097 0
76.399 0.0654481 0
76.2916 0.0491435 0
76.5667 0.882657 0
70.4635 -3.59293 0
71.2218 -3.50062 0
71.148 3.01154 0
71.6797 5.58679 0
69.8983 -2.56159 0
70.7307 -1.47238 0
70.754 1.98376 0
69.989 0.970365 0
75.4647 -1.09941 0
75.8078 -0.090645 0
75.8311 0.000233436 0
75.0236 -1.28824 0
68.1385 0.822221 0
67.8369 0.0244186 0
76.4331 -0.0544114 0
77.0391 -0.208442 0
76.0977 0.287319 0
75.9261 0.0185038 0
69.3878 -0.585258 0
68.8869 -0.792883 0
69.8983 1.10363 0
68.7022 0.439207 0
67.9005 0.0384433 0
68.4906 -0.251816 0
68.171 0.0171904 0
67.8924 -0.015329 0
66.4047 1.32446 0
68.0691 1.14246 0
75.1096 -1.98658 0
77.3597 -4.06614 0
77.5459 2.9625 0
74.7807 1.28841 0
68.0699 -1.38782 0
66.7799 -1.83902 0
75.6463 -0.0273319 0
76.4842 -0.477436 0
74.6357 0.0927554 0
76.2872 0.469145 0
74.1115 -0.12958 0
74.6842 -0.0151484 0
74.1962 1.11602 0
74.4334 0.0195541 0
76.024 -0.22392 0
76.0726 -0.706645 0
75.8142 -0.131768 0
75.7934 -0.00928129 0
67.8798 0.0298642 0
68.08 0.349134 0
67.6407 0.457736 0
66.5114 0.727777 0
67.9793 0.0472603 0
67.8639 0.0621019 0
68.0088 0.326584 0
68.0608 -0.350383 0
78.6107 -0.987263 0
76.4015 -0.864611 0
76.714 1.07917 0
77.479 0.591515 0
68.2552 -0.00225598 0
68.4298 -0.080335 0
67.9558 0.00755785 0
68.7544 0.162849 0
75.1394 -0.133403 0
74.8959 -0.370721 0
75.8585 -0.241948 0
75.7066 -0.0466486 0
74.1849 0.270817 0
74.5218 1.0614 0
74.9741 1.44797 0
74.5969 0.253428 0
68.987 -0.52169 0
70.0082 -1.32231 0
69.5847 1.02968 0
69.1013 0.854277 0
70.0517 1.83336 0
68.5149 1.32005 0
68.7942 -1.15858 0
69.5302 -1.71225 0
76.7768 0.179743 0
76.8031 1.4921 0
77.3526 0.131964 0
77.0163 0.324076 0
68.2781 -0.583326 0
68.4032 -0.752226 0
68.3878 0.726254 0
68.2187 1.01266 0
73.9226 1.20468 0
73.5095 0.246197 0
74.8536 0.115822 0
75.4595 0.700566 0
74.0906 2.54688 0
75.5748 4.22128 0
74.9613 -5.51193 0
74.6189 -2.12414 0
67.1728 -2.20926 0
68.6731 -2.19217 0
73.7854 -1.97566 0
74.0854 -0.696914 0
73.1925 0.291865 0
74.9248 1.76112 0
67.178 3.28989 0
68.1281 1.89597 0
74.5129 0.0225211 0
74.2286 0.134213 0
75.6532 -0.00947561 0
75.4432 0.0368635 0
75.7926 -0.18736 0
75.8208 -0.841324 0
75.9074 1.07075 0
75.3068 0.159142 0
72.8281 0.884361 0
71.6776 0.228093 0
72.328 -0.2298 0
72.7318 -2.03392 0
76.0131 0.353353 0
75.4952 0.612775 0
77.2601 -0.778771 0
76.9409 0.00317311 0
72.1024 -2.53146 0
72.804 -1.18544 0
72.4385 1.6867 0
74.196 3.66871 0
73.0585 0.300692 0
73.1662 0.0369682 0
74.9097 0.0640694 0
75.3589 -0.546756 0
74.5222 0.305982 0
74.4473 0.0170757 0
74.9619 0.112602 0
74.5744 0.789819 0
70.5396 0.310786 0
70.3527 0.7984 0
70.447 -0.687755 0
71.1042 -0.234138 0
71.778 1.80405 0
70.5471 1.20113 0
69.8951 -1.76884 0
69.1986 -1.75545 0
76.4634 -0.0578835 0
76.3435 -0.0412584 0
76.1875 0.181668 0
76.6778 0.319404 0
70.6396 2.47807 0
70.9527 1.64444 0
69.8537 -0.499392 0
69.6914 -0.196906 0
69.6277 0.178561 0
70.3584 0.529231 0
67.7167 -0.439719 0
68.2433 -0.743731 0
78.3567 -1.89931 0
76.5843 -1.07189 0
76.2124 2.01665 0
77.6962 1.52131 0
68.2314 -0.259215 0
67.845 0.0295484 0
67.8806 -0.00815014 0
68.3536 0.432286 0
68.6395 0.0385943 0
68.7206 0.41596 0
68.8297 -0.173381 0
69.0235 -0.00060802 0
67.1987 -0.0389787 0
65.7139 0.270904 0
73.9648 1.91941 0
76.0373 1.60245 0
75.5003 -1.51745 0
76.042 -3.15551 0
68.5616 1.47058 0
68.0983 0.924177 0
67.802 0.0184826 0
68.0017 0.0989168 0
71.3393 4.5001 0
69.5057 2.70601 0
70.6389 -2.8376 0
70.0149 -5.46618 0
68.0463 0.641137 0
67.976 0.168746 0
75.7902 -0.207893 0
75.2884 -0.724566 0
75.7597 -1.4347 0
75.9915 -0.199582 0
74.8474 0.171379 0
74.6822 0.140433 0
74.1787 0.121164 0
73.6469 0.729136 0
77.3165 0.360635 0
77.0027 0.64951 0