# vtk DataFile Version 3.0
Unstructured Grid for Triangles
ASCII
DATASET UNSTRUCTURED_GRID
POINTS 29612 DOUBLE
-0.000272397 1.23686e-05 0
-0.000295789 9.5838e-06 0
-0.000277865 -3.1235e-06 0
0.002024 0.0005 0
0.00203975 0.00049875 0
0.00205 0.0005 0
0.00203975 -0.00049875 0
0.002024 -0.0005 0
0.00205 -0.0005 0
0.0020295 0.0004975 0
0.0020295 -0.0004975 0
0.00201925 0.00049625 0
0.00201925 -0.00049625 0
-0.000529747 -0.000479887 0
-0.00055 -0.0005 0
-0.000524 -0.0005 0
-0.000505983 -0.000484325 0
-0.000498 -0.0005 0
-0.000472 -0.0005 0
-0.000483864 -0.000487761 0
-0.000446 -0.0005 0
-0.000459 -0.000484239 0
-0.000429453 -0.000424878 0
-0.000447486 -0.000420717 0
-0.000441829 -0.000436609 0
-0.000512578 -0.000462101 0
-0.000493078 -0.000453594 0
-0.00050706 -0.000439006 0
-0.000419243 -0.000477545 0
-0.000440307 -0.000471837 0
-0.00043691 -0.000486724 0
-0.000516129 -0.000420948 0
-0.000495355 -0.000415432 0
-0.000511646 -0.00040128 0
-0.000394697 -0.000481197 0
-0.000406302 -0.000455143 0
-0.000537257 -0.000388197 0
-0.000531099 -0.000407297 0
-0.000523982 -0.000388328 0
-0.000370063 -0.000472956 0
-0.000368 -0.0005 0
-0.00035308 -0.000485302 0
-0.0005072 -0.00037867 0
-0.000485506 -0.000383975 0
-0.000490949 -0.000359622 0
-0.000337127 -0.000484331 0
-0.000316 -0.0005 0
-0.000326495 -0.00047415 0
-0.00055 -0.00035 0
-0.000531201 -0.000370361 0
-0.000528367 -0.000346817 0
-0.000363898 -0.000448809 0
-0.000383315 -0.000460336 0
-3.26269e-05 -0.000415503 0
-5.99662e-05 -0.000409556 0
-5.46944e-05 -0.000429488 0
-0.000529747 0.000479887 0
-0.00055 0.0005 0
-0.00055 0.000475 0
-0.00055 0.00045 0
-0.000534834 0.000429171 0
-0.000526943 0.000442611 0
-0.000534026 0.000460176 0
-0.000531099 0.000407297 0
-0.000511672 0.000401178 0
-0.000516129 0.000420948 0
-0.000524 0.0005 0
-0.000505983 0.000484325 0
-0.000531201 0.000370361 0
-0.0005072 0.00037867 0
-0.000523982 0.000388328 0
-0.00048341 0.000469132 0
-0.000483679 0.000487539 0
-0.000528367 0.000346817 0
-0.00055 0.000325 0
-0.000525657 0.000328474 0
-0.000498 0.0005 0
-0.000530382 0.0003125 0
-0.000419243 0.000477545 0
-0.000440015 0.00047335 0
-0.000425917 0.000463678 0
-0.000435138 0.000262661 0
-0.000414982 0.000274462 0
-0.000435654 0.000285217 0
-0.000459 0.000484239 0
-0.000436852 0.000487027 0
-0.000446 0.0005 0
-0.000533308 0.000292503 0
-0.00055 0.000275 0
-0.000523377 0.000276953 0
-0.000425282 0.000446352 0
-0.000409368 0.000435728 0
-0.000406302 0.000455143 0
0.002009 0.000495 0
0.001998 0.0005 0
0.00199875 0.00049375 0
0.0019885 0.0004925 0
0.001972 0.0005 0
0.00197825 0.00049125 0
0.001968 0.00049 0
0.00195775 0.00048875 0
0.001946 0.0005 0
0.0019475 0.0004875 0
0.00193725 0.00048625 0
0.00192 0.0005 0
0.001927 0.000485 0
0.00191675 0.00048375 0
0.0019065 0.0004825 0
0.001894 0.0005 0
0.00189625 0.00048125 0
0.001886 0.00048 0
0.001868 0.0005 0
0.00187575 0.00047875 0
0.0018655 0.0004775 0
0.00185515 0.00048575 0
0.001842 0.0005 0
0.001845 0.000475 0
0.00185525 0.00047625 0
0.00182564 0.0004829 0
0.001816 0.0005 0
0.0018245 0.0004725 0
0.00183475 0.00047375 0
0.00181425 0.00047125 0
0.00180295 0.000482657 0
0.00179 0.0005 0
0.00179375 0.00046875 0
0.001804 0.00047 0
0.00178168 0.000480619 0
0.001764 0.0005 0
0.00177325 0.00046625 0
0.0017835 0.0004675 0
0.00176428 0.000476631 0
0.001763 0.000465 0
0.001738 0.0005 0
0.001751 0.000484164 0
0.00175275 0.00046375 0
0.00174025 0.000475632 0
0.001712 0.0005 0
0.00172615 0.000478449 0
0.001722 0.00046 0
0.00173225 0.00046125 0
0.0017015 0.0004575 0
0.00171243 0.00047381 0
0.00169554 0.000479999 0
0.001686 0.0005 0
0.00167507 0.000479751 0
0.00168498 0.000464861 0
0.00166 0.0005 0
0.0016558 0.000471459 0
0.00167135 0.000462887 0
0.001681 0.000455 0
0.0016605 0.0004525 0
0.00167075 0.00045375 0
0.00164059 0.000461599 0
0.0016394 0.000479551 0
0.00162881 0.00046615 0
0.00162975 0.00044875 0
0.00165025 0.00045125 0
0.00164 0.00045 0
0.00161754 0.000458641 0
0.00161722 0.000478101 0
0.00159956 0.000458294 0
0.00160925 0.00044625 0
0.0016195 0.0004475 0
0.00157667 0.000460322 0
0.00158875 0.00044375 0
0.00159194 0.000480155 0
0.001599 0.000445 0
0.0015785 0.0004425 0
0.00155808 0.000456757 0
0.00155647 0.000476701 0
0.00154059 0.000466642 0
0.00153756 0.000450083 0
0.00154839 0.000450446 0
0.00156825 0.00044125 0
0.00151954 0.000480508 0
0.00154052 0.00048477 0
0.00153 0.0005 0
0.00154775 0.00043875 0
0.00152142 0.000456625 0
0.00152821 0.000445753 0
0.0015375 0.0004375 0
0.001504 0.0005 0
0.00149644 0.000485168 0
0.00151787 0.000443178 0
0.00152725 0.00043625 0
0.00150675 0.00043375 0
0.001517 0.000435 0
0.00148119 0.000450887 0
0.00148072 0.000475756 0
0.00146584 0.000463516 0
0.00150008 0.00046396 0
0.00149351 0.00044543 0
0.0015061 0.000446252 0
0.001476 0.00043 0
0.00148625 0.00043125 0
0.00146492 0.000482975 0
0.00144888 0.000473562 0
0.00146676 0.000444259 0
0.00145255 0.000453656 0
0.00145652 0.000438669 0
0.00141401 0.000479821 0
0.001426 0.0005 0
0.0014 0.0005 0
0.00144374 0.000438862 0
0.0014555 0.0004275 0
0.001435 0.000425 0
0.00144525 0.00042625 0
0.00142746 0.000438121 0
0.00141288 0.000443191 0
0.00141707 0.000432778 0
0.0013921 0.000438992 0
0.00140355 0.00045932 0
0.00138302 0.00045922 0
0.00142912 0.000458869 0
0.00140592 0.000430037 0
0.0014145 0.0004225 0
0.00136458 0.00045869 0
0.00137106 0.00044063 0
0.001394 0.00042 0
0.00138259 0.000428915 0
0.00137484 0.000477094 0
0.00139166 0.000478902 0
0.0013586 0.000478984 0
0.00133449 0.000478649 0
0.00134717 0.000461848 0
0.00137256 0.000425134 0
0.00135323 0.000424541 0
0.00136325 0.00041625 0
0.00136122 0.00042876 0
0.00131206 0.000447284 0
0.00133168 0.000456738 0
0.00131773 0.000465243 0
0.00134756 0.000440343 0
0.00132747 0.000436463 0
0.00133483 0.000426786 0
0.00131081 0.00041867 0
0.00132382 0.000422815 0
0.00131507 0.00043122 0
0.00131059 0.000480123 0
0.0013325 0.0004125 0
0.0012915 0.0004075 0
0.0012982 0.000418199 0
0.00128915 0.000426216 0
0.00126366 0.000447574 0
0.00127331 0.000430908 0
0.00128781 0.000444872 0
0.00125336 0.000428376 0
0.00130218 0.000431077 0
0.00127894 0.000416344 0
0.00124774 0.000469608 0
0.00127668 0.000464148 0
0.00126591 0.00048331 0
0.00126722 0.000418415 0
0.00125768 0.000411931 0
0.00124326 0.000413546 0
0.0012505 0.0004025 0
0.00122408 0.000450118 0
0.00120276 0.000447432 0
0.0012139 0.000432235 0
0.00124336 0.000444132 0
0.00123056 0.000427595 0
0.00122977 0.000409049 0
0.0012185 0.000469217 0
0.00122676 0.000485947 0
0.00120525 0.000486094 0
0.00121479 0.000413153 0
0.00119547 0.000424221 0
0.00120249 0.000407448 0
0.00119925 0.00039625 0
0.00119346 0.000406114 0
0.00117479 0.000447279 0
0.00114726 0.000445259 0
0.0011571 0.000427814 0
0.00119443 0.000466611 0
0.00117447 0.000421596 0
0.00118421 0.00040752 0
0.00117409 0.000404437 0
0.00116775 0.000470073 0
0.001179 0.0004855 0
0.00115473 0.000484802 0
0.0011685 0.0003925 0
0.00117875 0.00039375 0
0.00115454 0.000400551 0
0.001148 0.00039 0
0.00115825 0.00039125 0
0.00111703 0.000423398 0
0.00113786 0.000426731 0
0.00112589 0.000443871 0
0.00113234 0.000406671 0
0.00114754 0.000413371 0
0.001106 0.000442326 0
0.00109703 0.000424261 0
0.0011275 0.0003875 0
0.00113775 0.00038875 0
0.00110211 0.000480875 0
0.00108244 0.000471951 0
0.00109312 0.000458413 0
0.00111755 0.000399116 0
0.0010944 0.000392972 0
0.00110415 0.000405876 0
0.00108839 0.000407536 0
0.00106472 0.000476905 0
0.00107274 0.000457868 0
0.00108011 0.000392415 0
0.00106885 0.000404365 0
0.00106625 0.000388708 0
0.00105286 0.000419254 0
0.00105055 0.000395469 0
0.00104215 0.000439764 0
0.00106346 0.000440629 0
0.00100945 0.000451249 0
0.00102825 0.00045614 0
0.00101189 0.000468452 0
0.00107625 0.00038125 0
0.00105575 0.00037875 0
0.001066 0.00038 0
0.00103352 0.000476905 0
0.00101803 0.00048465 0
0.00103685 0.000389398 0
0.0010245 0.00038825 0
0.00103525 0.00037625 0
0.00101092 0.000399779 0
0.00101267 0.000382619 0
0.00101382 0.00042025 0
0.00103187 0.000405286 0
0.00103359 0.000424605 0
0.000987383 0.00045447 0
0.000999411 0.000435161 0
0.0009744 0.000433145 0
0.0010045 0.0003725 0
0.00101475 0.00037375 0
0.000970845 0.000465215 0
0.000952614 0.000467664 0
0.000961768 0.000449944 0
0.00099729 0.000387704 0
0.000978901 0.00039598 0
0.000985823 0.000381492 0
0.000962289 0.000393709 0
0.000974259 0.000381279 0
0.00097375 0.00036875 0
0.000963045 0.000376631 0
0.000958 0.0005 0
0.000932 0.0005 0
0.000947542 0.00048457 0
0.000949675 0.000385245 0
0.000936214 0.000389472 0
0.000940006 0.000374906 0
0.000966411 0.000412573 0
0.000944241 0.000407079 0
0.000903569 0.000424993 0
0.000921701 0.000402409 0
0.000927439 0.000427744 0
0.000889795 0.000409067 0
0.000903071 0.00040248 0
0.000925447 0.000377721 0
0.00093275 0.00036375 0
0.000907708 0.000387127 0
0.000911303 0.000370839 0
0.000911933 0.000455145 0
0.000930678 0.000473279 0
0.000911886 0.000482603 0
0.000887724 0.000388076 0
0.000899595 0.000375116 0
0.000902 0.00036 0
0.000889241 0.00036954 0
0.000836977 0.000459472 0
0.000836223 0.000483578 0
0.000820467 0.000474142 0
0.000871227 0.000403557 0
0.000861 0.000355 0
0.000868368 0.000365714 0
0.00085484 0.00036588 0
0.000847735 0.000402845 0
0.000823121 0.000421599 0
0.000826582 0.000398147 0
0.000846943 0.00042454 0
0.000838832 0.000378613 0
0.000835569 0.000363808 0
0.000844098 0.00036291 0
0.00085075 0.00035375 0
0.000851465 0.000477164 0
0.00083025 0.00035125 0
0.000822824 0.000368659 0
0.00081446 0.000357362 0
0.000805884 0.000371794 0
0.000753471 0.000477524 0
0.000738313 0.000473927 0
0.000739102 0.000461526 0
0.00079826 0.000358588 0
0.000788607 0.000376287 0
0.000781733 0.000357987 0
0.000816783 0.000384471 0
0.000807975 0.000404095 0
0.000752138 0.000404775 0
0.000767682 0.000417043 0
0.000749617 0.000421803 0
0.000752903 0.000384008 0
0.000738293 0.000393136 0
0.000772614 0.000394048 0
0.00076863 0.000371878 0
0.000765995 0.000354121 0
0.000779 0.000345 0
0.00071811 0.000453059 0
0.000738069 0.000437967 0
0.000752085 0.000365972 0
0.000728123 0.000374583 0
0.000741845 0.000354664 0
[...]
CELL_DATA 58684
VECTORS velocity DOUBLE
65.2083 -0.0925038 0
72.1467 -8.37466e-05 0
71.4553 -0.000124237 0
72.18 -0.00871039 0
71.4852 0.0104723 0
72.1896 -0.00813176 0
71.5003 0.0105558 0
67.8141 0.00626048 0
67.8309 0.0102946 0
67.8959 0.00492491 0
67.9767 0.00429397 0
68.0294 -0.218955 0
67.8463 0.0262504 0
68.0904 -0.0703534 0
67.8422 0.0643234 0
68.2617 -0.102836 0
67.8159 0.08448 0
68.5427 -0.100793 0
67.8559 0.0356799 0
68.9062 -0.0631877 0
67.8042 0.0829753 0
68.5191 -0.24098 0
72.2734 -1.23729 0
67.8016 -0.0109576 0
67.8221 -0.0486977 0
67.8005 -0.022596 0
67.8451 -0.0885343 0
67.8415 -0.0120952 0
67.8289 -0.115697 0
67.9051 -0.00903665 0
67.8138 -0.0982675 0
67.8849 -0.00252173 0
67.824 -0.105364 0
68.1671 0.0626727 0
67.9593 0.519678 0
68.0544 0.0272079 0
67.8018 -0.103825 0
68.2265 0.161124 0
72.2117 0.00403183 0
72.2285 -0.000828828 0
72.2466 -0.0162151 0
72.2489 -0.00234757 0
72.2724 -0.00190326 0
72.2835 -0.0129258 0
72.283 -0.0105309 0
72.2879 0.000198743 0
72.2992 -0.001981 0
72.298 -0.00973135 0
72.2963 -0.00043241 0
72.3095 -0.00439889 0
72.3002 -0.00560513 0
72.2967 0.00184215 0
72.2957 0.00547441 0
72.2976 -0.00327101 0
72.2817 0.00579322 0
72.278 0.00743568 0
72.2815 -0.00546285 0
72.2516 0.0165366 0
72.2486 0.0198982 0
72.2426 0.013644 0
72.2358 -0.00272601 0
72.2136 0.0327141 0
72.202 0.0211823 0
72.1758 -0.000602118 0
72.159 0.0348052 0
72.1569 0.0387554 0
72.1465 0.0205513 0
72.1306 -0.00271424 0
72.1148 0.0368892 0
72.1051 0.0167588 0
72.0944 -0.00559468 0
72.0737 0.0316466 0
72.0643 0.020359 0
72.0469 0.027247 0
72.0524 -0.00414231 0
72.0342 0.00460138 0
72.0325 0.00273743 0
72.0322 -0.00695429 0
72.021 -0.0172635 0
72.0255 -0.041072 0
72.0188 -0.0206485 0
72.0374 -0.00649484 0
72.0439 -0.0350957 0
72.0266 -0.0637785 0
72.0974 -0.0681322 0
72.0699 -0.0944407 0
72.0633 -0.105699 0
72.0934 -0.150005 0
72.1617 -0.148271 0
72.2333 -0.202777 0
72.1246 -0.147523 0
72.2014 -0.241326 0
72.2849 -0.229879 0
72.2788 -0.206958 0
72.3013 -0.311113 0
72.4944 -0.335737 0
72.3909 -0.291973 0
72.4385 -0.382507 0
72.5784 -0.466257 0
72.6195 -0.371039 0
72.8265 -0.493709 0
72.6164 -0.406152 0
72.8929 -0.158149 0
72.8189 -0.534715 0
73.0235 -0.524355 0
72.916 -0.58198 0
73.0875 -0.162764 0
73.0405 -0.607682 0
73.1879 -0.70118 0
73.3574 -0.398995 0
73.3528 -0.420548 0
73.198 -0.593079 0
73.4667 -0.745327 0
73.5004 -0.302512 0
73.7507 -0.641791 0
73.6482 -0.412646 0
73.9067 -0.0205209 0
73.7592 -0.703635 0
73.8924 -0.787375 0
74.1779 -0.623305 0
74.231 -0.386216 0
73.9598 -0.369983 0
74.2036 -0.662988 0
74.3497 -0.307946 0
74.4009 -0.606889 0
74.209 -0.191199 0
74.499 -0.496174 0
74.3728 -0.121221 0
74.543 -0.535839 0
74.6143 -0.453231 0
74.4609 -0.105353 0
74.6463 -0.221422 0
74.4131 -0.0843164 0
74.6957 -0.11228 0
74.4049 -0.0704775 0
74.737 -0.210972 0
74.7171 0.129943 0
74.4131 0.17198 0
74.3192 0.326715 0
74.5236 0.0964134 0
74.6518 0.194622 0
74.2218 0.151828 0
74.5011 0.426333 0
74.4335 0.557141 0
73.921 0.496039 0
74.1414 0.332412 0
74.4036 0.505202 0
74.2545 0.675693 0
73.9144 0.138293 0
73.8635 0.865115 0
73.8673 0.996511 0
73.3051 0.542314 0
73.5527 0.510678 0
73.7005 0.839384 0
73.5667 1.02143 0
73.4149 0.147749 0
73.5158 1.19981 0
73.194 1.22192 0
72.8986 0.726999 0
73.0344 0.910876 0
72.689 0.642381 0
72.9422 1.158 0
72.6436 0.199632 0
72.8856 1.03687 0
72.4805 0.806692 0
72.473 0.185181 0
72.2772 0.736705 0
72.192 0.525335 0
72.2421 0.260283 0
72.2409 0.0684936 0
72.2304 0.752184 0
72.121 0.698703 0
72.2441 0.0409741 0
72.0214 0.300148 0
71.9995 0.159424 0
72.0742 0.151398 0
72.1989 0.00816409 0
72.2332 -0.0676876 0
71.9516 0.0855797 0
72.2565 -0.101813 0
71.9903 -0.139307 0
72.0308 -0.315627 0
72.0536 -0.395979 0
72.3173 -0.00270933 0
72.2418 -0.553124 0
72.0979 -0.353487 0
72.3996 -0.405652 0
72.5313 -0.504683 0
72.2853 -0.691377 0
72.4552 -0.734569 0
72.4495 -0.1263 0
72.5361 -0.72636 0
72.6018 -0.896222 0
72.6526 -0.845556 0
72.8251 -0.110354 0
72.6671 -0.598347 0
73.0677 -0.896835 0
73.0533 -0.510074 0
72.9333 -0.423412 0
73.137 -0.821433 0
73.1748 -0.893709 0
72.8259 -0.113148 0
73.348 -0.778992 0
73.421 -0.663681 0
73.0097 -0.0243753 0
73.469 -0.456161 0
73.2204 -0.472061 0
73.2569 -0.112633 0
73.3467 -0.0168807 0
73.4191 -0.300096 0
73.66 -0.326061 0
73.0583 0.00383418 0
73.6252 -0.00814933 0
73.6809 -0.0844168 0
73.5966 0.23671 0
72.9 4.09066e-05 0
73.3509 0.194981 0
73.5711 0.370832 0
72.9974 0.0422435 0
73.5322 0.473319 0
73.0834 0.179646 0
73.4659 0.526088 0
72.8456 0.0703114 0
73.1832 0.455538 0
73.2944 0.650534 0
72.8346 0.0424786 0
73.0512 0.690686 0
72.7888 0.531456 0
72.9479 0.426109 0
72.8201 0.125103 0
72.7165 0.692556 0
72.7627 0.0149364 0
72.8287 -0.0187268 0
72.8473 0.364844 0
72.5502 0.496387 0
72.431 0.580214 0
72.7842 -0.112986 0
72.4737 0.0994129 0
72.2874 -0.0377383 0
72.9065 -0.0595778 0
72.3718 -0.381939 0
72.2386 -0.192412 0
72.6774 -0.220385 0
72.9286 -0.272912 0
72.9204 -0.398447 0
72.3068 -0.594622 0
73.257 -0.00452042 0
72.365 -0.793167 0
72.4486 -1.00581 0
72.4188 -0.995928 0
73.465 -0.425427 0
72.9489 -1.15101 0
73.0072 -1.45281 0
73.6488 -0.00526722 0
73.0982 -1.81582 0
73.6658 -1.88498 0
73.4011 -1.05979 0
73.6302 -0.545018 0
73.4436 -2.04222 0
73.759 -0.699599 0
74.1014 -0.0892283 0
73.6867 -1.56582 0
73.92 -2.18151 0
74.2874 -2.15403 0
74.2396 -0.347759 0
74.6662 -1.73361 0
74.4685 -2.11521 0
74.3851 -0.15045 0
74.7685 -2.28704 0
75.1882 -2.14902 0
75.0916 -1.12912 0
74.5307 0.00152376 0
75.5662 -1.87779 0
75.1261 -0.44653 0
75.4431 -0.409665 0
75.5436 -1.59706 0
75.3694 -1.0913 0
76.2306 -1.31276 0
74.7916 -0.00894436 0
76.1278 -1.51921 0
75.9554 -0.625741 0
76.5061 -0.669439 0
74.6359 -0.00299837 0
76.6264 0.138068 0
76.4593 0.367483 0
74.1976 0.096403 0
76.7898 -0.265794 0
76.8688 0.269939 0
75.1037 0.700362 0
74.7252 0.279024 0
75.9356 0.232086 0
76.8319 0.780042 0
74.3727 0.182029 0
76.5107 1.49489 0
76.7648 0.940271 0
76.7644 1.13242 0
74.0178 0.845354 0
75.7248 1.6529 0
76.5057 1.78555 0
73.9842 0.143912 0
76.3564 2.16404 0
76.3196 2.10918 0
75.6406 3.19173 0
72.7629 0.221923 0
76.285 2.95667 0
75.0224 2.12431 0
73.7393 0.944445 0
73.6439 1.852 0
76.1523 3.24397 0
75.5891 3.6461 0
73.1066 0.37812 0
75.4567 4.12466 0
71.5237 -0.00382713 0
71.541 0.000602463 0
71.575 0.0244952 0
71.5796 0.0124258 0
71.6197 0.00246956 0
71.6706 0.0321631 0
71.675 0.036694 0
71.6886 0.0219547 0
71.732 0.0038815 0
71.7805 0.0594763 0
71.781 0.0413544 0
71.8277 0.00770001 0
71.9031 0.0764123 0
71.904 0.0792401 0
71.9142 0.0523459 0
71.9668 0.00983712 0
72.0282 0.107137 0
72.0261 0.0825039 0
72.0838 0.0173954 0
72.1896 0.144939 0
72.1894 0.136404 0
72.3129 0.187456 0
72.1994 0.0772923 0
72.3672 0.119468 0
72.5163 0.19348 0
72.3759 0.119948 0
72.5461 0.18775 0
72.6097 0.149875 0
72.687 0.233175 0
72.5584 0.126129 0
72.75 0.15589 0
72.8509 0.261983 0
72.7446 0.127603 0
72.991 0.2838 0
73.0071 0.251773 0
73.0587 0.191387 0
72.9321 0.148489 0
73.0676 0.196033 0
73.2043 0.173318 0
73.1135 0.13297 0
73.3247 0.287612 0
73.2829 0.10167 0
73.3844 0.173919 0
73.275 0.154698 0
73.3959 0.208476 0
73.5293 0.193439 0
73.5295 0.0978838 0
73.488 0.180289 0
73.6014 0.188466 0
73.598 0.174777 0
73.6428 0.0626501 0
73.6257 0.079571 0
73.6592 0.10181 0
73.6813 0.104528 0
73.6441 0.0329929 0
73.6847 0.0582743 0
73.6606 0.0315999 0
73.5885 -0.0511294 0
73.6253 -0.00383051 0
73.6061 -0.0428291 0
73.6004 -0.0728206 0
73.5413 -0.0794767 0
73.4854 -0.0543583 0
73.4534 -0.150001 0
73.5891 -0.00934434 0
73.4321 -0.19084 0
73.2888 -0.270981 0
73.3386 -0.212529 0
73.3733 -0.117893 0
73.222 -0.303872 0
73.1797 -0.259088 0
72.982 -0.139348 0
73.2279 -0.252859 0
73.0542 -0.292777 0
72.9686 -0.318718 0
73.1053 -0.0800117 0
72.9753 -0.23609 0
72.785 -0.341593 0
72.8982 -0.183663 0
72.7238 -0.281678 0
72.5847 -0.273044 0
72.6762 -0.222111 0
72.5339 -0.0663749 0
72.5328 -0.206738 0
72.4499 -0.245866 0
72.4852 -0.0488526 0
72.3941 -0.180585 0
72.5081 -0.142858 0
72.3022 -0.0764403 0
72.4459 -0.0917801 0
72.3117 -0.0793894 0
72.2614 0.112678 0
72.3519 0.0229213 0
72.3352 0.0167642 0
72.2808 0.18576 0
72.3155 0.173759 0
72.3488 0.0326679 0
72.2828 0.261661 0
72.3146 0.376618 0
72.431 0.0926277 0
72.4699 0.192196 0
72.4065 0.413548 0
72.4348 0.554631 0
72.4355 0.240023 0
72.5266 0.583976 0
72.6095 0.694977 0
72.8422 0.221869 0
72.6607 0.387415 0
72.8262 0.836325 0
72.8615 0.705965 0
72.6649 0.196794 0
72.928 0.805512 0
73.1178 0.841923 0
73.13 0.285585 0
73.0525 0.704705 0
73.4248 0.980206 0
73.4033 0.678215 0
72.9772 0.228617 0
73.5328 0.829422 0
73.7847 0.847681 0
73.3509 0.243728 0
73.7318 0.552373 0
73.5233 0.22105 0
73.857 0.458773 0
73.4705 0.323918 0
73.9864 0.681489 0
74.1147 0.355912 0
73.6168 0.0836818 0
74.0642 0.347772 0
74.1589 0.103024 0
73.6481 -0.0449099 0
73.9662 0.333969 0
74.0776 -0.0340089 0
74.1746 -0.134621 0
73.6343 0.00274534 0
74.1293 -0.240921 0
74.0284 -0.580816 0
73.9665 -0.551614 0
73.5196 -0.155387 0
73.7583 -0.717828 0
73.5908 -0.144872 0
74.0471 -0.230599 0
73.8561 -0.729201 0
73.6049 -1.01168 0
73.5781 -1.10053 0
73.5251 -0.0076168 0
73.2541 -1.33483 0
73.223 -1.27151 0
73.0216 -1.01335 0
72.907 -0.421479 0
72.6656 -0.393038 0
73.0183 -1.20981 0
73.1829 -0.264071 0
72.6324 -1.2144 0
72.6589 -1.1872 0
72.5865 -0.93416 0
72.6352 -0.222856 0
72.3743 -0.893961 0
72.045 -1.00925 0
72.3802 -0.250391 0
72.4451 -0.362011 0
72.1967 -0.663414 0
71.81 -0.604732 0
72.5709 -0.250387 0
71.8163 -0.589979 0
71.7536 -0.342001 0
72.2235 -0.0347056 0
71.7579 0.0480203 0
71.7219 0.099964 0
71.9094 0.35169 0
72.1396 0.0726195 0
72.064 0.00519912 0
71.7811 0.2379 0
72.1583 -0.0535092 0
71.8404 0.54885 0
71.8643 0.634608 0
72.0353 0.751699 0
72.188 0.0678335 0
72.1331 1.03319 0
72.1557 1.14261 0
72.193 0.479777 0
72.5488 0.874275 0
72.343 0.408347 0
72.2925 1.1363 0
72.2875 0.194033 0
72.6275 1.47968 0
72.663 1.42744 0
72.3617 0.193807 0
72.8374 1.26955 0
73.2581 1.46837 0
73.0363 1.47457 0
72.9424 0.263836 0
73.7558 1.43759 0
73.8246 1.53874 0
72.7943 0.901375 0
73.4383 0.97936 0
72.9587 0.489653 0
74.1268 1.44423 0
73.1501 0.132479 0
74.1889 1.2148 0
74.1128 1.05216 0
72.9384 0.111344 0
73.8818 0.913543 0
74.4749 0.790886 0
74.5214 0.677818 0
73.5855 0.207354 0
74.5341 0.522322 0
74.5054 0.458349 0
73.7451 0.638906 0
74.2913 0.265689 0
73.7035 0.158562 0
74.4939 0.268727 0
73.684 0.0591785 0
74.4813 0.134128 0
74.4425 0.0819522 0
73.536 0.0486125 0
74.3353 0.103095 0
74.3156 -0.0567467 0
74.2363 -0.0498253 0
73.8907 0.0520914 0
74.2815 -0.0351467 0
74.201 -0.0355238 0
74.3201 0.11542 0
74.2802 0.063606 0
73.9262 0.0233965 0
74.254 -0.0148686 0
73.9421 0.0111717 0
74.1702 0.0599698 0
74.1651 0.138578 0
73.8582 0.012417 0
74.3223 0.177814 0
74.2439 0.300515 0
74.3476 0.400082 0
74.1002 -0.0107736 0
74.4768 0.528046 0
74.5365 0.466124 0
74.2281 -0.0334685 0
74.6449 0.616288 0
74.7517 0.142441 0
74.2175 0.00297308 0
74.1092 0.0123986 0
74.9048 0.698184 0
74.9812 0.366281 0
75.3206 0.579627 0
74.0225 -0.00352252 0
75.2619 0.108013 0
75.6726 0.291468 0
74.1331 -0.0287787 0
75.0718 0.0531765 0
75.9342 -0.0377455 0
75.1923 -0.35665 0
74.2684 -0.175879 0
75.9834 -0.308101 0
76.1364 -0.568031 0
74.7801 -0.117548 0
75.2392 -1.12503 0
74.1436 -1.25771 0
75.9086 -0.827195 0
73.8857 -0.163624 0
76.2816 -1.33407 0
74.9915 4.51789 0
75.3852 4.04981 0
72.136 1.19963 0
74.9599 4.47792 0
73.6306 4.20431 0
74.4484 4.91739 0
72.4692 0.472981 0
73.9275 5.05868 0
73.285 5.0344 0
71.7368 0.606708 0
73.2553 5.32477 0
76.3052 -1.72145 0
73.9635 -0.0917427 0
76.2813 -1.98953 0
75.6034 -2.46803 0
75.0973 -2.09364 0
73.7013 -0.1322 0
75.864 -2.85205 0
72.5944 4.93174 0
75.5753 -3.76446 0
73.7605 -0.69949 0
75.4362 -3.67922 0
74.8309 -4.39028 0
71.0764 1.46347 0
74.6559 -4.3909 0
75.0236 -2.07771 0
75.0631 -3.8831 0
73.7171 -2.91683 0
72.7313 -0.468578 0
74.4479 -4.03415 0
74.0301 -4.40448 0
72.1972 5.18395 0
74.0431 -4.40391 0
73.1505 -0.237902 0
73.4355 -4.73755 0
73.068 -5.20061 0
72.4211 -0.312187 0
72.4308 -5.40578 0
72.6519 -3.85563 0
71.2957 -0.406566 0
71.8555 -5.54214 0
71.7028 -3.042 0
72.5557 -2.2251 0
72.1881 -4.71467 0
71.4603 -5.05142 0
72.707 2.73868 0
70.5804 0.325574 0
72.2948 1.84643 0
71.6331 -0.04072 0
71.1918 -5.47609 0
72.0379 4.90975 0
70.4602 0.230495 0
71.5857 4.17373 0
70.6365 -5.48743 0
71.3884 -1.05752 0
70.104 -4.00159 0
71.5538 5.57786 0
69.7829 1.18929 0
71.5335 5.49936 0
70.2069 4.6465 0
69.9685 0.238858 0
70.6628 4.87838 0
70.44 -4.10899 0
71.1434 -0.308515 0
70.0703 -5.63864 0
70.1227 -5.47217 0
70.8535 5.24404 0
69.6633 5.03779 0
69.5779 0.019551 0
70.3134 5.20513 0
69.116 3.07334 0
69.5507 1.33348 0
69.4358 -5.63441 0
69.9521 -0.701964 0
69.681 -5.5319 0
68.7792 5.27902 0
69.018 -5.22531 0
69.4132 -0.676759 0
69.1987 -2.22049 0
68.2676 -5.07843 0
70.1265 -2.65283 0
68.1194 -4.88404 0
69.1123 -0.18075 0
67.4878 -4.74083 0
68.751 1.60818 0
69.1866 0.245168 0
68.5342 4.4098 0
68.8488 0.0498337 0
68.3188 5.20229 0
68.2354 4.87117 0
68.645 0.0954935 0
67.7426 4.20102 0
68.4904 0.0652183 0
68.3829 -4.36924 0
69.1191 -0.348657 0
68.9731 3.74289 0
67.8935 0.141711 0
67.5474 3.92082 0
67.4193 -4.75545 0
69.2137 -0.151198 0
66.2458 -4.09483 0
67.8475 0.0528064 0
66.7536 -4.04388 0
68.3101 1.35905 0
67.7927 -0.0780561 0
68.8729 -3.5154 0
67.7934 0.0800365 0
66.3241 -3.86295 0
67.1098 3.49403 0
67.3392 -3.00033 0
67.8061 0.129951 0
66.5332 -3.32691 0
67.852 1.70155 0
66.3368 0.956145 0
66.7755 2.95255 0
67.7058 -0.656596 0
66.4597 -3.67008 0
67.7928 -0.0797731 0
66.6577 4.13424 0
67.7707 -1.64232 0
67.7898 0.0539342 0
66.2176 -3.36744 0
66.5764 3.69636 0
67.8326 0.146695 0
66.5016 2.79495 0
66.341 2.74551 0
67.7867 -0.0704645 0
65.8202 2.41528 0
65.6317 -3.04417 0
67.7992 0.0754505 0
65.3702 -3.06663 0
66.9845 -1.50799 0
67.7905 0.0844943 0
65.0274 -2.21701 0
65.7781 3.1352 0
67.7956 0.123228 0
66.7103 1.81702 0
65.3831 -1.98855 0
67.7469 -0.0577506 0
64.8998 -1.89507 0
64.9721 2.19044 0
67.776 -0.0311827 0
65.2418 2.05986 0
65.4813 1.5897 0
67.7839 -0.0236298 0
64.9161 1.74433 0
65.7618 -1.28282 0
67.7568 -0.258283 0
65.2239 -1.21031 0
64.3954 -0.895999 0
67.3239 -0.779609 0
64.5553 -0.806842 0
67.0653 0.373496 0
67.7762 -0.0393878 0
66.4451 1.25165 0
64.8502 1.3079 0
67.7177 -0.0556086 0
64.4318 0.743195 0
67.5349 -0.27566 0
67.7933 0.0457801 0
64.4323 -0.469386 0
64.7703 -0.354079 0
67.769 -0.0130486 0
66.3725 -0.113896 0
65.0268 0.0380406 0
67.7779 0.00723561 0
67.449 -3.93598 0
67.8513 0.0333472 0
67.8099 -0.0909739 0
67.844 4.33663 0
68.6484 -5.23643 0
70.5071 -0.604039 0
69.4571 0.559325 0
70.1005 5.47873 0
67.7808 -0.068123 0
65.435 2.98673 0
65.1232 -2.20145 0
67.7936 0.078113 0
67.8045 -0.0511359 0
67.668 -2.51831 0
67.8812 0.233945 0
67.7886 -0.0977768 0
67.7722 -0.0384843 0
64.796 1.09734 0
68.8147 0.238114 0
68.197 0.782865 0
68.4647 -0.867928 0
69.4541 -0.443589 0
72.4474 -0.706966 0
72.7523 -5.24263 0
73.49 5.05109 0
72.2495 0.276763 0
67.7505 0.818149 0
68.7694 5.05564 0
68.3523 -4.82226 0
68.8065 -1.49343 0
67.1709 -1.14756 0
65.5864 -0.453223 0
66.6495 3.62193 0
67.9631 0.961598 0
67.8852 -1.21095 0
65.6944 -3.39675 0
76.1649 -2.44133 0
73.6049 -0.325027 0
73.6943 0.468534 0
76.2976 2.66355 0
67.8559 -0.360951 0
67.8069 0.034103 0
67.8365 -0.0977582 0
68.5925 0.378126 0
70.9561 0.438816 0
70.7419 2.55518 0
70.026 -1.26777 0
71.7143 -1.03403 0
70.0804 3.04496 0
71.8516 5.24133 0
71.5662 -5.53728 0
70.7793 -1.19477 0
72.9027 0.998432 0
73.6961 3.1784 0
72.7822 -1.56594 0
73.1338 -0.0195282 0
74.1573 -0.0585626 0
75.4315 0.446267 0
76.5576 -0.695082 0
74.4435 0.0136239 0
73.9289 -0.00118946 0
74.1824 0.194924 0
75.1851 -1.95586 0
74.4428 -0.154133 0
68.687 -0.927115 0
68.247 -0.35701 0
68.1866 0.610278 0
68.7411 0.485623 0
68.0724 0.590732 0
67.8149 -0.145535 0
67.7991 0.0813177 0
68.0242 -0.686914 0
74.4305 0.53269 0
75.3191 0.977304 0
74.1686 -0.427495 0
74.0095 -0.0526576 0
66.4555 -0.933815 0
67.7866 -0.011482 0
67.5555 -0.355296 0
67.8085 0.0250258 0
67.7934 -0.105123 0
67.8318 0.354535 0
74.4083 0.0113176 0
73.8043 0.0784809 0
73.8328 -0.0059943 0
73.0113 -1.5841 0
70.3046 -0.0244199 0
69.8834 -1.82446 0
70.2988 1.10468 0
69.581 0.259527 0
67.7048 2.32311 0
67.1981 4.61918 0
67.394 -4.34765 0
68.1804 -2.1924 0
68.4969 -1.37384 0
67.6143 -1.57212 0
67.7346 2.74663 0
68.0407 1.14275 0
74.5438 -0.226439 0
74.6016 -0.0530805 0
74.0839 -0.0108246 0
74.3413 0.125472 0
69.1405 -3.59135 0
69.828 -3.43314 0
69.3648 2.82614 0
69.6062 5.45739 0
68.7026 -2.65283 0
69.4755 -1.48884 0
69.1481 1.8175 0
68.7606 0.804035 0
74.4176 0.997199 0
73.3921 0.116137 0
73.0949 -0.00742875 0
72.33 0.0409699 0
67.4518 0.411451 0
67.7856 -0.019698 0
73.8801 -0.202465 0
74.3598 -1.11175 0
74.1346 0.0578653 0
73.8065 0.011029 0
68.54 -0.609022 0
68.1869 -0.860019 0
68.6896 0.914115 0
68.0793 0.308139 0
67.8094 0.0889199 0
68.0195 -0.320143 0
67.8732 -0.0655431 0
67.8116 -0.100983 0
65.1011 0.840391 0
67.1707 0.701367 0
73.2516 -1.78013 0
75.5379 -3.40002 0
75.8019 3.56307 0
73.0435 1.41046 0
67.1343 -1.71336 0
65.6381 -2.19981 0
72.6369 0.188943 0
72.8136 1.42291 0
72.1975 0.00767061 0
72.08 1.08654 0
72.8906 0.632256 0
72.8032 0.0205029 0
73.6642 0.1247 0
72.9368 -0.000872052 0
73.1958 -0.280809 0
72.8979 -0.669234 0
73.7721 0.233346 0
73.4857 0.00250347 0
67.7774 -0.0763804 0
67.7112 0.118864 0
66.8128 0.0300716 0
65.2817 0.240666 0
67.7786 -0.0837606 0
67.7747 0.0370629 0
67.4977 0.00596636 0
67.4752 -0.645456 0
76.0611 -0.254583 0
74.2597 -0.718053 0
75.3991 1.21085 0
76.7743 0.437981 0
67.9057 -0.0105656 0
67.9735 -0.130361 0
67.8339 -0.0319686 0
68.1373 0.111676 0
72.7775 -0.0292727 0
72.7115 0.0558223 0
73.2751 0.382104 0
72.7948 0.133323 0
72.2784 -0.161266 0
71.9584 -0.398669 0
73.4677 -0.772431 0
72.9444 -0.126692 0
68.2774 -0.561648 0
68.9365 -1.38949 0
68.4712 0.830566 0
68.2372 0.634946 0
68.634 1.57852 0
67.6078 0.913701 0
68.0253 -1.29973 0
68.4963 -1.84834 0
74.4034 -0.0611705 0
74.3289 0.268815 0
75.6783 -1.63629 0
75.5165 -0.196748 0
67.731 -0.79274 0
67.8065 -0.928826 0
67.8149 0.448208 0
67.4447 0.587965 0
72.2489 -1.21563 0
72.789 -0.357386 0
72.6385 -0.154581 0
72.9004 -0.874283 0
72.1865 2.66718 0
73.5222 4.48462 0
73.428 -5.0995 0
72.8286 -1.93007 0
66.0372 -2.5377 0
67.6262 -2.42169 0
72.0598 -1.83176 0
72.2791 -0.637255 0
71.3657 0.296019 0
73.195 1.93838 0
65.6444 2.81878 0
66.9725 1.45254 0
72.8724 0.0148295 0
73.1051 0.278231 0
72.4695 0.444905 0
72.4415 0.100583 0
73.7242 -0.161565 0
73.7889 -0.719717 0
74.4185 1.20849 0
73.7628 0.171447 0
71.0017 0.881767 0
69.9955 0.215881 0
70.7677 -0.213324 0
71.1405 -1.92419 0
74.1353 0.0586475 0
74.3383 0.00931462 0
73.9647 -1.98999 0
74.7001 -0.750722 0
70.612 -2.43704 0
71.1771 -1.11934 0
70.6071 1.67031 0
72.1696 3.78426 0
73.5523 -0.919078 0
73.3092 -0.134681 0
72.4537 -0.156137 0
72.089 -0.383424 0
73.0138 -0.111015 0
72.952 -0.00196169 0
72.1706 0.0263325 0
71.9821 -0.264815 0
69.166 0.267509 0
69.017 0.688524 0
69.2854 -0.721049 0
69.7955 -0.219586 0
70.0204 1.70237 0
69.1035 1.05473 0
68.7807 -1.85934 0
68.2239 -1.93009 0
74.1961 -0.132212 0
74.1076 -0.0771366 0
74.6498 0.120634 0
75.1209 0.0427865 0
68.9892 2.26682 0
69.3705 1.48034 0
68.853 -0.520787 0
68.7484 -0.195568 0
68.607 0.135803 0
69.0205 0.467947 0
66.9051 -0.828501 0
67.6177 -0.96846 0
76.0109 -1.13866 0
74.4573 -0.894469 0
74.5831 2.31764 0
76.4885 2.12274 0
67.8326 -0.406363 0
67.7861 0.0786614 0
67.8053 -0.0990103 0
67.9086 0.254412 0
68.0769 0.0261921 0
68.1075 0.286939 0
68.2098 -0.198405 0
68.3292 -0.0104783 0
66.1557 -0.495185 0
64.4164 -0.207939 0
72.1263 2.0342 0
74.5043 1.83666 0
73.5546 -1.31545 0
74.1954 -2.72623 0
67.6129 1.05025 0
67.3073 0.46905 0
67.7848 0.00503059 0
67.708 -0.0946773 0
69.377 4.30594 0
68.0159 2.34293 0
69.3331 -2.83533 0
68.6858 -5.43131 0
67.4851 0.3135 0
67.7592 0.00956595 0
73.8616 0.308453 0
74.5067 0.603023 0
72.4718 -0.56123 0
73.1619 -0.218959 0
72.6478 -0.179459 0
72.8567 -0.0731575 0
72.3052 -0.0772788 0
72.597 -0.987556 0
76.5307 -0.715906 0
75.8593 0.482064 0
74.6358 0.072643 0
75.038 0.559859 0
67.5901 -0.0718396 0