# vtk DataFile Version 3.0
Unstructured Grid for Triangles
ASCII
DATASET UNSTRUCTURED_GRID
POINTS 29612 DOUBLE
-0.000272397 1.23686e-05 0
-0.000295789 9.5838e-06 0
-0.000277865 -3.1235e-06 0
0.002024 0.0005 0
0.00203975 0.00049875 0
0.00205 0.0005 0
0.00203975 -0.00049875 0
0.002024 -0.0005 0
0.00205 -0.0005 0
0.0020295 0.0004975 0
0.0020295 -0.0004975 0
0.00201925 0.00049625 0
0.00201925 -0.00049625 0
-0.000529747 -0.000479887 0
-0.00055 -0.0005 0
-0.000524 -0.0005 0
-0.000505983 -0.000484325 0
-0.000498 -0.0005 0
-0.000472 -0.0005 0
-0.000483864 -0.000487761 0
-0.000446 -0.0005 0
-0.000459 -0.000484239 0
-0.000429453 -0.000424878 0
-0.000447486 -0.000420717 0
-0.000441829 -0.000436609 0
-0.000512578 -0.000462101 0
-0.000493078 -0.000453594 0
-0.00050706 -0.000439006 0
-0.000419243 -0.000477545 0
-0.000440307 -0.000471837 0
-0.00043691 -0.000486724 0
-0.000516129 -0.000420948 0
-0.000495355 -0.000415432 0
-0.000511646 -0.00040128 0
-0.000394697 -0.000481197 0
-0.000406302 -0.000455143 0
-0.000537257 -0.000388197 0
-0.000531099 -0.000407297 0
-0.000523982 -0.000388328 0
-0.000370063 -0.000472956 0
-0.000368 -0.0005 0
-0.00035308 -0.000485302 0
-0.0005072 -0.00037867 0
-0.000485506 -0.000383975 0
-0.000490949 -0.000359622 0
-0.000337127 -0.000484331 0
-0.000316 -0.0005 0
-0.000326495 -0.00047415 0
-0.00055 -0.00035 0
-0.000531201 -0.000370361 0
-0.000528367 -0.000346817 0
-0.000363898 -0.000448809 0
-0.000383315 -0.000460336 0
-3.26269e-05 -0.000415503 0
-5.99662e-05 -0.000409556 0
-5.46944e-05 -0.000429488 0
-0.000529747 0.000479887 0
-0.00055 0.0005 0
-0.00055 0.000475 0
-0.00055 0.00045 0
-0.000534834 0.000429171 0
-0.000526943 0.000442611 0
-0.000534026 0.000460176 0
-0.000531099 0.000407297 0
-0.000511672 0.000401178 0
-0.000516129 0.000420948 0
-0.000524 0.0005 0
-0.000505983 0.000484325 0
-0.000531201 0.000370361 0
-0.0005072 0.00037867 0
-0.000523982 0.000388328 0
-0.00048341 0.000469132 0
-0.000483679 0.000487539 0
-0.000528367 0.000346817 0
-0.00055 0.000325 0
-0.000525657 0.000328474 0
-0.000498 0.0005 0
-0.000530382 0.0003125 0
-0.000419243 0.000477545 0
-0.000440015 0.00047335 0
-0.000425917 0.000463678 0
-0.000435138 0.000262661 0
-0.000414982 0.000274462 0
-0.000435654 0.000285217 0
-0.000459 0.000484239 0
-0.000436852 0.000487027 0
-0.000446 0.0005 0
-0.000533308 0.000292503 0
-0.00055 0.000275 0
-0.000523377 0.000276953 0
-0.000425282 0.000446352 0
-0.000409368 0.000435728 0
-0.000406302 0.000455143 0
0.002009 0.000495 0
0.001998 0.0005 0
0.00199875 0.00049375 0
0.0019885 0.0004925 0
0.001972 0.0005 0
0.00197825 0.00049125 0
0.001968 0.00049 0
0.00195775 0.00048875 0
0.001946 0.0005 0
0.0019475 0.0004875 0
0.00193725 0.00048625 0
0.00192 0.0005 0
0.001927 0.000485 0
0.00191675 0.00048375 0
0.0019065 0.0004825 0
0.001894 0.0005 0
0.00189625 0.00048125 0
0.001886 0.00048 0
0.001868 0.0005 0
0.00187575 0.00047875 0
0.0018655 0.0004775 0
0.00185515 0.00048575 0
0.001842 0.0005 0
0.001845 0.000475 0
0.00185525 0.00047625 0
0.00182564 0.0004829 0
0.001816 0.0005 0
0.0018245 0.0004725 0
0.00183475 0.00047375 0
0.00181425 0.00047125 0
0.00180295 0.000482657 0
0.00179 0.0005 0
0.00179375 0.00046875 0
0.001804 0.00047 0
0.00178168 0.000480619 0
0.001764 0.0005 0
0.00177325 0.00046625 0
0.0017835 0.0004675 0
0.00176428 0.000476631 0
0.001763 0.000465 0
0.001738 0.0005 0
0.001751 0.000484164 0
0.00175275 0.00046375 0
0.00174025 0.000475632 0
0.001712 0.0005 0
0.00172615 0.000478449 0
0.001722 0.00046 0
0.00173225 0.00046125 0
0.0017015 0.0004575 0
0.00171243 0.00047381 0
0.00169554 0.000479999 0
0.001686 0.0005 0
0.00167507 0.000479751 0
0.00168498 0.000464861 0
0.00166 0.0005 0
0.0016558 0.000471459 0
0.00167135 0.000462887 0
0.001681 0.000455 0
0.0016605 0.0004525 0
0.00167075 0.00045375 0
0.00164059 0.000461599 0
0.0016394 0.000479551 0
0.00162881 0.00046615 0
0.00162975 0.00044875 0
0.00165025 0.00045125 0
0.00164 0.00045 0
0.00161754 0.000458641 0
0.00161722 0.000478101 0
0.00159956 0.000458294 0
0.00160925 0.00044625 0
0.0016195 0.0004475 0
0.00157667 0.000460322 0
0.00158875 0.00044375 0
0.00159194 0.000480155 0
0.001599 0.000445 0
0.0015785 0.0004425 0
0.00155808 0.000456757 0
0.00155647 0.000476701 0
0.00154059 0.000466642 0
0.00153756 0.000450083 0
0.00154839 0.000450446 0
0.00156825 0.00044125 0
0.00151954 0.000480508 0
0.00154052 0.00048477 0
0.00153 0.0005 0
0.00154775 0.00043875 0
0.00152142 0.000456625 0
0.00152821 0.000445753 0
0.0015375 0.0004375 0
0.001504 0.0005 0
0.00149644 0.000485168 0
0.00151787 0.000443178 0
0.00152725 0.00043625 0
0.00150675 0.00043375 0
0.001517 0.000435 0
0.00148119 0.000450887 0
0.00148072 0.000475756 0
0.00146584 0.000463516 0
0.00150008 0.00046396 0
0.00149351 0.00044543 0
0.0015061 0.000446252 0
0.001476 0.00043 0
0.00148625 0.00043125 0
0.00146492 0.000482975 0
0.00144888 0.000473562 0
0.00146676 0.000444259 0
0.00145255 0.000453656 0
0.00145652 0.000438669 0
0.00141401 0.000479821 0
0.001426 0.0005 0
0.0014 0.0005 0
0.00144374 0.000438862 0
0.0014555 0.0004275 0
0.001435 0.000425 0
0.00144525 0.00042625 0
0.00142746 0.000438121 0
0.00141288 0.000443191 0
0.00141707 0.000432778 0
0.0013921 0.000438992 0
0.00140355 0.00045932 0
0.00138302 0.00045922 0
0.00142912 0.000458869 0
0.00140592 0.000430037 0
0.0014145 0.0004225 0
0.00136458 0.00045869 0
0.00137106 0.00044063 0
0.001394 0.00042 0
0.00138259 0.000428915 0
0.00137484 0.000477094 0
0.00139166 0.000478902 0
0.0013586 0.000478984 0
0.00133449 0.000478649 0
0.00134717 0.000461848 0
0.00137256 0.000425134 0
0.00135323 0.000424541 0
0.00136325 0.00041625 0
0.00136122 0.00042876 0
0.00131206 0.000447284 0
0.00133168 0.000456738 0
0.00131773 0.000465243 0
0.00134756 0.000440343 0
0.00132747 0.000436463 0
0.00133483 0.000426786 0
0.00131081 0.00041867 0
0.00132382 0.000422815 0
0.00131507 0.00043122 0
0.00131059 0.000480123 0
0.0013325 0.0004125 0
0.0012915 0.0004075 0
0.0012982 0.000418199 0
0.00128915 0.000426216 0
0.00126366 0.000447574 0
0.00127331 0.000430908 0
0.00128781 0.000444872 0
0.00125336 0.000428376 0
0.00130218 0.000431077 0
0.00127894 0.000416344 0
0.00124774 0.000469608 0
0.00127668 0.000464148 0
0.00126591 0.00048331 0
0.00126722 0.000418415 0
0.00125768 0.000411931 0
0.00124326 0.000413546 0
0.0012505 0.0004025 0
0.00122408 0.000450118 0
0.00120276 0.000447432 0
0.0012139 0.000432235 0
0.00124336 0.000444132 0
0.00123056 0.000427595 0
0.00122977 0.000409049 0
0.0012185 0.000469217 0
0.00122676 0.000485947 0
0.00120525 0.000486094 0
0.00121479 0.000413153 0
0.00119547 0.000424221 0
0.00120249 0.000407448 0
0.00119925 0.00039625 0
0.00119346 0.000406114 0
0.00117479 0.000447279 0
0.00114726 0.000445259 0
0.0011571 0.000427814 0
0.00119443 0.000466611 0
0.00117447 0.000421596 0
0.00118421 0.00040752 0
0.00117409 0.000404437 0
0.00116775 0.000470073 0
0.001179 0.0004855 0
0.00115473 0.000484802 0
0.0011685 0.0003925 0
0.00117875 0.00039375 0
0.00115454 0.000400551 0
0.001148 0.00039 0
0.00115825 0.00039125 0
0.00111703 0.000423398 0
0.00113786 0.000426731 0
0.00112589 0.000443871 0
0.00113234 0.000406671 0
0.00114754 0.000413371 0
0.001106 0.000442326 0
0.00109703 0.000424261 0
0.0011275 0.0003875 0
0.00113775 0.00038875 0
0.00110211 0.000480875 0
0.00108244 0.000471951 0
0.00109312 0.000458413 0
0.00111755 0.000399116 0
0.0010944 0.000392972 0
0.00110415 0.000405876 0
0.00108839 0.000407536 0
0.00106472 0.000476905 0
0.00107274 0.000457868 0
0.00108011 0.000392415 0
0.00106885 0.000404365 0
0.00106625 0.000388708 0
0.00105286 0.000419254 0
0.00105055 0.000395469 0
0.00104215 0.000439764 0
0.00106346 0.000440629 0
0.00100945 0.000451249 0
0.00102825 0.00045614 0
0.00101189 0.000468452 0
0.00107625 0.00038125 0
0.00105575 0.00037875 0
0.001066 0.00038 0
0.00103352 0.000476905 0
0.00101803 0.00048465 0
0.00103685 0.000389398 0
0.0010245 0.00038825 0
0.00103525 0.00037625 0
0.00101092 0.000399779 0
0.00101267 0.000382619 0
0.00101382 0.00042025 0
0.00103187 0.000405286 0
0.00103359 0.000424605 0
0.000987383 0.00045447 0
0.000999411 0.000435161 0
0.0009744 0.000433145 0
0.0010045 0.0003725 0
0.00101475 0.00037375 0
0.000970845 0.000465215 0
0.000952614 0.000467664 0
0.000961768 0.000449944 0
0.00099729 0.000387704 0
0.000978901 0.00039598 0
0.000985823 0.000381492 0
0.000962289 0.000393709 0
0.000974259 0.000381279 0
0.00097375 0.00036875 0
0.000963045 0.000376631 0
0.000958 0.0005 0
0.000932 0.0005 0
0.000947542 0.00048457 0
0.000949675 0.000385245 0
0.000936214 0.000389472 0
0.000940006 0.000374906 0
0.000966411 0.000412573 0
0.000944241 0.000407079 0
0.000903569 0.000424993 0
0.000921701 0.000402409 0
0.000927439 0.000427744 0
0.000889795 0.000409067 0
0.000903071 0.00040248 0
0.000925447 0.000377721 0
0.00093275 0.00036375 0
0.000907708 0.000387127 0
0.000911303 0.000370839 0
0.000911933 0.000455145 0
0.000930678 0.000473279 0
0.000911886 0.000482603 0
0.000887724 0.000388076 0
0.000899595 0.000375116 0
0.000902 0.00036 0
0.000889241 0.00036954 0
0.000836977 0.000459472 0
0.000836223 0.000483578 0
0.000820467 0.000474142 0
0.000871227 0.000403557 0
0.000861 0.000355 0
0.000868368 0.000365714 0
0.00085484 0.00036588 0
0.000847735 0.000402845 0
0.000823121 0.000421599 0
0.000826582 0.000398147 0
0.000846943 0.00042454 0
0.000838832 0.000378613 0
0.000835569 0.000363808 0
0.000844098 0.00036291 0
0.00085075 0.00035375 0
0.000851465 0.000477164 0
0.00083025 0.00035125 0
0.000822824 0.000368659 0
0.00081446 0.000357362 0
0.000805884 0.000371794 0
0.000753471 0.000477524 0
0.000738313 0.000473927 0
0.000739102 0.000461526 0
0.00079826 0.000358588 0
0.000788607 0.000376287 0
0.000781733 0.000357987 0
0.000816783 0.000384471 0
0.000807975 0.000404095 0
0.000752138 0.000404775 0
0.000767682 0.000417043 0
0.000749617 0.000421803 0
0.000752903 0.000384008 0
0.000738293 0.000393136 0
0.000772614 0.000394048 0
0.00076863 0.000371878 0
0.000765995 0.000354121 0
0.000779 0.000345 0
0.00071811 0.000453059 0
0.000738069 0.000437967 0
0.000752085 0.000365972 0
0.000728123 0.000374583 0
0.000741845 0.000354664 0
[...]
CELL_DATA 58684
VECTORS velocity DOUBLE
65.2233 0.0334953 0
70.7941 -0.000271994 0
70.1366 -1.96928e-05 0
70.8077 -0.0108279 0
70.1997 0.0179353 0
70.8041 -0.00130055 0
70.2395 0.0228225 0
67.8117 -0.00298542 0
67.8208 -0.0325579 0
67.9022 -0.00276092 0
67.9586 -0.0033579 0
67.9686 -0.230599 0
67.8566 -0.116975 0
68.0154 -0.0733608 0
67.8349 -0.213935 0
68.1018 -0.105841 0
67.8076 -0.187491 0
68.2873 -0.107834 0
67.8671 -0.305151 0
68.6149 -0.0795899 0
67.8199 -0.192759 0
68.2794 -0.253286 0
72.3453 -1.23492 0
67.7932 0.02422 0
67.7956 0.0957935 0
67.7919 0.0475019 0
67.8489 0.213006 0
67.8348 0.0335515 0
67.8337 0.272667 0
67.9383 0.0468977 0
67.8258 0.241557 0
67.8954 0.0348735 0
67.7763 0.242845 0
68.1091 0.085784 0
67.8959 0.639816 0
68.0348 0.0419403 0
67.8426 0.291474 0
68.1443 0.196397 0
70.8285 0.0147269 0
70.8369 7.93213e-05 0
70.8361 -0.00872918 0
70.8386 0.0104621 0
70.8665 -0.000407978 0
70.8632 -0.00513415 0
70.8648 0.00217307 0
70.8733 0.01429 0
70.8884 0.00150821 0
70.8811 0.00324791 0
70.8833 0.0141543 0
70.9081 -0.000725466 0
70.895 0.00529425 0
70.8989 0.0131409 0
70.9031 0.017003 0
70.9182 0.00215085 0
70.9103 0.0111707 0
70.9119 0.013513 0
70.9342 -0.000756834 0
70.9202 0.0141347 0
70.9263 0.014421 0
70.9303 0.0121636 0
70.9481 0.00174726 0
70.9376 0.00807749 0
70.9581 0.000130596 0
70.9757 0.00192096 0
70.9617 -0.00647096 0
70.9664 -0.00514917 0
70.9856 -0.0105724 0
71.0183 -9.67839e-05 0
71.0082 -0.0308577 0
71.0328 -0.0253523 0
71.0749 -0.00375918 0
71.0718 -0.0591363 0
71.093 -0.0456644 0
71.1368 -0.0979095 0
71.179 -0.00156359 0
71.1921 -0.0976859 0
71.2325 -0.0652863 0
71.306 -0.00806401 0
71.3198 -0.172977 0
71.4696 -0.154454 0
71.3404 -0.149201 0
71.5078 -0.00867932 0
71.5847 -0.132109 0
71.5025 -0.232164 0
71.8203 -0.178803 0
71.7168 -0.236416 0
71.6979 -0.292805 0
71.8188 -0.38343 0
72.0637 -0.291375 0
72.2294 -0.388574 0
71.9423 -0.319506 0
72.1397 -0.480636 0
72.3639 -0.405762 0
72.3436 -0.387593 0
72.4004 -0.548086 0
72.799 -0.521339 0
72.6016 -0.475302 0
72.6902 -0.612944 0
72.9463 -0.711033 0
73.0447 -0.541613 0
73.3888 -0.642216 0
73.038 -0.579662 0
73.4948 -0.205093 0
73.3878 -0.689061 0
73.7061 -0.647643 0
73.5506 -0.728605 0
73.7974 -0.192304 0
73.7307 -0.725143 0
73.9458 -0.803704 0
74.1872 -0.385351 0
74.1627 -0.440748 0
73.9664 -0.646948 0
74.3327 -0.734986 0
74.3604 -0.265861 0
74.6497 -0.575045 0
74.5247 -0.360696 0
74.7801 -0.00498548 0
74.7066 -0.582803 0
74.8451 -0.604871 0
75.1025 -0.408544 0
75.0829 -0.163331 0
74.8254 -0.237779 0
75.1373 -0.368413 0
75.135 -0.062105 0
75.2769 -0.225058 0
75.0125 -0.0556741 0
75.3343 -0.154234 0
75.0394 0.0191327 0
75.3212 -0.123458 0
75.3332 0.0732402 0
74.9448 0.17367 0
75.2344 0.209114 0
75.0034 0.113263 0
75.1483 0.423366 0
74.9446 0.0783219 0
75.3003 0.353271 0
75.0052 0.672549 0
74.6442 0.491761 0
74.524 0.679632 0
74.8339 0.541392 0
74.8684 0.642463 0
74.5385 0.317744 0
74.5835 0.854383 0
74.4568 0.963352 0
73.948 0.608724 0
74.3365 0.480419 0
74.4438 0.81281 0
74.2737 0.997877 0
74.0533 0.174117 0
73.7689 1.0143 0
73.7514 1.08338 0
73.3369 0.476056 0
73.6696 0.552692 0
73.5969 0.830735 0
73.4636 0.995933 0
73.4893 0.137047 0
73.403 1.12012 0
73.1478 1.00316 0
73.0124 0.521205 0
73.0121 0.684741 0
72.8572 0.37512 0
72.9361 0.811291 0
72.8479 0.101836 0
72.8831 0.693148 0
72.6156 0.403314 0
72.7443 0.0724384 0
72.5468 0.231602 0
72.529 0.0992589 0
72.599 0.0333427 0
72.665 -0.0638711 0
72.5093 0.232831 0
72.4785 0.126807 0
72.6487 -0.0240135 0
72.4932 -0.169747 0
72.5514 -0.272053 0
72.5098 -0.140264 0
72.7028 -0.120478 0
72.7394 -0.192367 0
72.5656 -0.38776 0
72.7485 -0.144041 0
72.674 -0.443685 0
72.722 -0.485446 0
72.7517 -0.610629 0
72.784 -0.0061122 0
72.9584 -0.572975 0
72.7477 -0.413693 0
72.9597 -0.296548 0
73.0407 -0.290545 0
73.0697 -0.643371 0
73.1858 -0.593131 0
72.8865 -0.0970447 0
73.2308 -0.456752 0
73.2729 -0.546842 0
73.2809 -0.507773 0
72.9696 0.00622731 0
73.1791 -0.284605 0
73.5383 -0.31027 0
73.2151 -0.0417583 0
73.2127 -0.0409981 0
73.4544 -0.105808 0
73.5581 -0.214612 0
72.9771 -0.0189542 0
73.5208 0.0605576 0
73.5117 0.0917558 0
72.7516 0.0613782 0
73.3653 0.375044 0
73.3145 0.0501524 0
72.9658 0.263792 0
72.9861 0.434555 0
73.2008 0.376106 0
73.3978 0.534477 0
72.7679 0.162708 0
73.0593 0.600845 0
73.1785 0.767893 0
72.8062 0.798718 0
72.5528 0.00158952 0
72.8 0.565957 0
72.788 0.851164 0
72.6499 0.117061 0
72.6831 0.890278 0
72.4859 0.250529 0
72.5934 0.95301 0
72.417 0.00458263 0
72.2943 0.46423 0
72.3721 0.698203 0
72.4797 0.0166596 0
72.0911 0.598933 0
72.0014 0.151464 0
72.3312 0.225235 0
72.3551 -0.0628481 0
71.8868 0.14441 0
72.4321 -0.219073 0
72.7233 -0.0572393 0
72.1224 -0.0222907 0
71.8192 -0.145277 0
71.834 -0.169895 0
72.6233 -0.343081 0
72.1034 -0.601526 0
72.0605 -0.863131 0
72.8658 -0.131648 0
72.3253 -1.20006 0
72.066 -1.14359 0
72.4838 -0.865805 0
72.9211 -0.551326 0
72.9455 -0.730018 0
72.3113 -1.53677 0
73.3883 -0.00847713 0
72.4921 -1.79967 0
72.7213 -1.87442 0
72.6396 -1.95214 0
73.6685 -0.589802 0
73.2252 -1.81709 0
73.5023 -2.01586 0
73.8648 -0.00920312 0
73.6467 -2.45847 0
74.2269 -2.27143 0
73.7621 -1.46923 0
73.8759 -0.722568 0
74.0518 -2.5038 0
74.0758 -0.896077 0
74.3513 -0.106702 0
74.1726 -1.81963 0
74.5841 -2.38842 0
74.9551 -2.28162 0
74.5052 -0.40433 0
75.1466 -1.7514 0
75.1253 -2.13155 0
74.6168 -0.166497 0
75.3642 -2.14292 0
75.7003 -1.89166 0
75.4713 -1.09066 0
74.7198 -0.000466234 0
75.9638 -1.52356 0
75.3642 -0.425533 0
75.6568 -0.368655 0
75.8915 -1.31005 0
75.7104 -0.916169 0
76.4223 -0.955141 0
74.9594 -0.0198118 0
76.3595 -1.09888 0
76.0957 -0.429228 0
76.5409 -0.344962 0
74.8187 -0.0109121 0
76.5668 0.270973 0
76.4266 0.440704 0
74.3149 0.0881769 0
76.6878 0.00250594 0
76.723 0.372699 0
75.1939 0.643345 0
74.8637 0.250653 0
75.9914 0.257718 0
76.6928 0.774806 0
74.4898 0.164683 0
76.4391 1.35153 0
76.627 0.909807 0
76.635 1.05676 0
74.1082 0.77152 0
75.7434 1.48586 0
76.4464 1.58562 0
74.0825 0.128805 0
76.3214 1.90331 0
76.2749 1.88316 0
75.7066 2.8614 0
72.8179 0.208019 0
76.3135 2.61047 0
75.0925 1.91427 0
73.8212 0.864987 0
73.7154 1.70103 0
76.2073 2.87158 0
75.7095 3.29345 0
73.1654 0.347694 0
75.6159 3.72252 0
70.2869 -0.00590054 0
70.3231 4.89886e-05 0
70.3981 0.0455995 0
70.4089 0.0228497 0
70.4864 0.00195027 0
70.5888 0.0555198 0
70.6015 0.062382 0
70.6298 0.0330525 0
70.7103 0.0022324 0
70.7996 0.0933775 0
70.8053 0.0615488 0
70.8889 0.00645468 0
71.0153 0.111486 0
71.0234 0.113059 0
71.0451 0.0689952 0
71.133 0.00740454 0
71.2317 0.145608 0
71.2349 0.107768 0
71.3266 0.0162087 0
71.4822 0.188584 0
71.4886 0.174315 0
71.6658 0.233133 0
71.5107 0.0931108 0
71.7481 0.14393 0
71.9501 0.224497 0
71.7704 0.139354 0
71.9967 0.208501 0
72.0805 0.161392 0
72.177 0.25358 0
72.0186 0.144423 0
72.2623 0.15764 0
72.3796 0.269069 0
72.2605 0.136873 0
72.5439 0.274746 0
72.5648 0.23496 0
72.6235 0.176348 0
72.485 0.14762 0
72.6393 0.176573 0
72.7811 0.141393 0
72.6907 0.119042 0
72.9008 0.224058 0
72.8749 0.0755103 0
72.9608 0.122607 0
72.8609 0.124995 0
72.9771 0.140961 0
73.0813 0.108438 0
73.0954 0.050769 0
73.0565 0.105499 0
73.1369 0.0900945 0
73.1377 0.0675433 0
73.1764 0.000212959 0
73.1673 0.0069194 0
73.1712 0.00227511 0
73.1691 -0.0309332 0
73.1703 -0.0295093 0
73.1687 -0.0467239 0
73.1431 -0.08944 0
73.1307 -0.0896309 0
73.1573 -0.0769535 0
73.1027 -0.14495 0
73.1043 -0.157576 0
73.0929 -0.110619 0
73.0496 -0.0744897 0
73.0278 -0.168753 0
73.1323 -0.0354192 0
72.9989 -0.200645 0
72.9119 -0.225806 0
72.9529 -0.195155 0
72.9866 -0.11722 0
72.8889 -0.22113 0
72.8689 -0.188917 0
72.8602 -0.049089 0
72.9184 -0.177151 0
72.8364 -0.151846 0
72.8106 -0.134224 0
72.8918 -0.0512954 0
72.8436 -0.0932918 0
72.7644 -0.084963 0
72.8315 -0.0703684 0
72.7553 -0.0630027 0
72.7724 0.0494974 0
72.8203 0.0130485 0
72.8873 0.0239359 0
72.8011 0.0908533 0
72.7899 0.0862326 0
72.9546 0.0403164 0
72.8544 0.201075 0
72.8745 0.134241 0
72.9192 0.218591 0
72.9125 0.108046 0
72.9599 0.334607 0
73.1821 0.550294 0
73.2238 0.12013 0
73.1231 0.325847 0
73.3193 0.619754 0
73.2826 0.451926 0
73.1595 0.161689 0
73.392 0.60807 0
73.4975 0.679485 0
73.5128 0.148999 0
73.6449 0.276388 0
73.6788 0.581969 0
73.7603 0.810009 0
73.5447 0.407254 0
73.9168 0.741202 0
74.0223 0.791703 0
74.0664 0.201967 0
73.9644 0.432797 0
74.2521 0.794056 0
74.2413 0.627054 0
73.8654 0.211544 0
74.3155 0.652233 0
74.5355 0.582065 0
74.2678 0.163588 0
74.3875 0.536874 0
74.7064 0.557253 0
74.6284 0.309851 0
74.154 0.174535 0
74.7781 0.356852 0
74.8186 0.12636 0
74.3189 0.0884454 0
74.7431 -0.0534358 0
74.3113 -0.0282437 0
74.6758 -0.195342 0
74.3156 0.00110084 0
74.804 -0.161955 0
74.7117 -0.502951 0
74.1863 -0.121523 0
74.6648 -0.490479 0
74.4627 -0.835985 0
73.886 -0.224258 0
74.5869 -0.344489 0
74.3476 -0.765515 0
74.3071 -0.981173 0
73.8941 -0.125915 0
74.1786 -0.935149 0
73.7842 -1.34293 0
73.7519 -1.09211 0
73.4617 -0.298076 0
73.3747 -1.12028 0
73.6658 -0.379715 0
74.0467 -0.886088 0
73.4942 -1.28999 0
73.0447 -1.38341 0
73.0213 -1.37924 0
73.5111 -0.0127509 0
72.5981 -1.41256 0
72.5475 -1.28188 0
72.4603 -0.878529 0
72.5334 -0.376174 0
72.3173 -0.287465 0
72.3937 -1.0852 0
72.8986 -0.330324 0
72.0105 -0.866012 0
72.0784 -0.854246 0
72.1247 -0.588777 0
72.3569 -0.154209 0
71.8694 -0.427009 0
71.7079 -0.319425 0
72.1434 -0.0687084 0
72.1536 -0.18649 0
71.8962 -0.158403 0
71.6604 0.121168 0
72.2554 -0.174362 0
71.731 0.195698 0
71.7165 0.364185 0
72.1386 0.0548494 0
71.9206 0.772577 0
71.9366 0.764012 0
72.1662 0.767292 0
72.1823 0.240487 0
72.0988 0.218789 0
71.9406 0.811623 0
72.122 0.0887082 0
72.2194 1.17056 0
72.2999 1.12312 0
72.3624 1.05747 0
72.2838 0.116458 0
72.6748 1.31688 0
72.6948 1.37369 0
72.5118 0.622889 0
72.9216 0.941339 0
72.6207 0.498712 0
72.8432 1.26344 0
72.4916 0.28325 0
73.1702 1.44238 0
73.2157 1.33622 0
72.5412 0.239556 0
73.2935 1.08824 0
73.6794 1.13146 0
73.4823 1.1874 0
73.1067 0.228769 0
73.978 0.947485 0
74.0012 0.968008 0
73.1392 0.790119 0
73.583 0.629356 0
73.1841 0.41594 0
74.0852 0.752187 0
73.2342 0.102666 0
74.0918 0.565656 0
74.0226 0.472316 0
73.0756 0.0907436 0
73.8726 0.444667 0
74.0414 0.233461 0
73.9948 0.16815 0
73.529 0.157297 0
73.9575 0.117184 0
73.9112 0.0355366 0
73.7319 0.363277 0
73.8353 0.197511 0
73.5926 0.143931 0
73.8119 0.0167487 0
73.5757 0.0610927 0
73.7359 0.0761971 0
73.6911 0.115747 0
73.4721 0.0446052 0
73.8154 0.212164 0
73.6214 0.357739 0
73.6204 0.4511 0
73.7148 0.124764 0
73.6806 0.451035 0
73.6997 0.714271 0
73.7913 0.263957 0
74.067 0.627 0
73.7871 0.128174 0
73.7772 0.590566 0
73.8667 0.0636619 0
73.8784 0.968982 0
73.926 1.03695 0
73.7611 0.0459538 0
74.1867 0.960657 0
74.194 1.24661 0
74.4837 1.36842 0
74.1805 0.115867 0
74.7352 1.50293 0
74.8461 1.36013 0
74.3948 0.201297 0
75.0168 1.58266 0
75.0753 0.732876 0
74.2253 0.34504 0
74.0751 0.216514 0
75.4044 1.58987 0
75.4769 1.04117 0
75.9655 1.26726 0
74.125 0.00324748 0
75.8169 0.637049 0
76.3645 0.765606 0
74.2952 0.0389893 0
75.5548 0.560462 0
76.6428 0.297812 0
75.7023 -0.0146621 0
74.5258 0.0280538 0
76.6656 -0.0422072 0
76.7929 -0.364485 0
75.146 0.301672 0
75.7268 -0.972585 0
74.4559 -1.16588 0
76.5235 -0.631411 0
74.1765 -0.108244 0
76.8596 -1.25835 0
75.171 4.13931 0
75.5537 3.66902 0
72.1534 1.12576 0
75.1386 4.12419 0
73.7858 3.93328 0
74.6572 4.56058 0
72.4945 0.436269 0
74.1443 4.73664 0
73.492 4.76327 0
71.7127 0.578058 0
73.4862 5.02085 0
76.8631 -1.67327 0
74.2404 -0.0485207 0
76.7972 -1.9705 0
76.0239 -2.4655 0
75.4989 -2.05052 0
73.971 -0.112413 0
76.2721 -2.89109 0
72.7688 4.70989 0
75.9002 -3.84656 0
74.04 -0.631931 0
75.7383 -3.7419 0
75.0688 -4.47912 0
71.036 1.40566 0
74.8717 -4.4626 0
75.4021 -2.01933 0
75.3184 -3.93344 0
73.9003 -2.91608 0
72.8899 -0.450238 0
74.6541 -4.08763 0
74.1864 -4.46127 0
72.393 4.96043 0
74.2063 -4.4684 0
73.3579 -0.220783 0
73.5485 -4.80242 0
73.15 -5.27618 0
72.5274 -0.30172 0
72.4641 -5.47316 0
72.7139 -3.90285 0
71.2223 -0.403022 0
71.8508 -5.60562 0
71.6759 -3.08412 0
72.6457 -2.23195 0
72.2113 -4.77097 0
71.4398 -5.10892 0
72.7945 2.56629 0
70.4773 0.31226 0
72.3323 1.73553 0
71.5919 -0.0344183 0
71.1558 -5.52531 0
72.2285 4.71164 0
70.3475 0.223209 0
71.6981 4.01878 0
70.5807 -5.53052 0
71.3201 -1.07414 0
70.0012 -4.03928 0
71.776 5.36671 0
69.6696 1.21187 0
71.7531 5.29927 0
70.3184 4.53578 0
69.822 0.243722 0
70.8387 4.73961 0
70.3556 -4.15019 0
71.0223 -0.320688 0
70.0029 -5.67412 0
70.0514 -5.50486 0
71.0368 5.08566 0
69.8041 4.93314 0
69.4195 0.015474 0
70.4821 5.06876 0
69.1333 3.0798 0
69.4337 1.3804 0
69.3562 -5.65925 0
69.6984 -0.722956 0
69.6037 -5.55953 0
68.9484 5.18859 0
68.9266 -5.24625 0
69.1294 -0.715469 0
68.9856 -2.304 0
68.174 -5.08417 0
69.9654 -2.69731 0
68.0229 -4.8935 0
68.8149 -0.199091 0
67.3939 -4.74524 0
68.6713 1.7375 0
69.0114 0.267527 0
68.6667 4.35862 0
68.6669 0.0679375 0
68.4908 5.12234 0
68.3815 4.82527 0
68.4673 0.117384 0
67.8584 4.19805 0
68.3519 0.0841323 0
68.269 -4.39333 0
68.8212 -0.385547 0
69.038 3.70205 0
67.7973 0.511786 0
67.6594 3.95302 0
67.3244 -4.7563 0
68.914 -0.168001 0
66.1714 -4.07941 0
67.7753 -0.453133 0
66.6657 -4.04948 0
68.2444 1.58941 0
67.7838 0.208631 0
68.7338 -3.56171 0
67.7891 -0.188537 0
66.2525 -3.85054 0
67.21 3.55787 0
67.2309 -3.02445 0
67.8038 -0.347649 0
66.4528 -3.32675 0
67.8362 1.93192 0
66.3576 1.16324 0
66.8588 3.05595 0
67.5939 -0.599061 0
66.3866 -3.65534 0
67.7545 0.443573 0
66.7995 4.16507 0
67.6168 -1.70072 0
67.7878 -0.143549 0
66.1469 -3.35315 0
66.7 3.75588 0
67.7514 0.501917 0
66.5733 2.91661 0
66.4194 2.86261 0
67.7385 0.420591 0
65.8966 2.5415 0
65.5721 -3.0053 0
67.7509 -0.36013 0
65.3225 -3.02225 0
66.9103 -1.4793 0
67.7759 -0.281583 0
65.001 -2.15061 0
65.8765 3.22517 0
67.6761 0.438269 0
66.7443 2.00791 0
65.3554 -1.92597 0
67.6592 -0.26862 0
64.8774 -1.82301 0
65.0642 2.30961 0
67.6616 0.259441 0
65.3224 2.18856 0
65.54 1.74139 0
67.7865 0.0621898 0
64.9906 1.87106 0
65.7314 -1.20977 0
67.6157 -0.344102 0
65.2104 -1.12367 0
64.4062 -0.798361 0
67.2339 -0.665219 0
64.5707 -0.707759 0
67.0409 0.556744 0
67.7037 0.110739 0
66.4698 1.44533 0
64.9141 1.4364 0
67.5919 0.0605606 0
64.4886 0.864874 0
67.4119 -0.152807 0
67.7558 -0.166876 0
64.4581 -0.364463 0
64.7885 -0.243375 0
67.7241 -0.0532689 0
66.3706 0.0443401 0
65.0546 0.158481 0
67.7402 -0.0693662 0
67.3418 -3.95518 0
67.829 -0.422 0
67.7664 0.230141 0
67.9774 4.33685 0
68.5565 -5.2492 0
70.312 -0.623822 0
69.3075 0.586031 0
70.2937 5.3431 0
67.7122 0.331811 0
65.5385 3.0805 0
65.092 -2.14363 0
67.7254 -0.28424 0
67.7833 -0.474828 0
67.5286 -2.58158 0
67.8564 0.487547 0
67.8434 0.305549 0
67.7142 0.0256781 0
64.8534 1.22439 0
68.6291 0.289891 0
68.0988 0.959954 0
68.2353 -0.941809 0
69.1675 -0.468885 0
72.5593 -0.689162 0
72.8074 -5.31073 0
73.7119 4.7584 0
72.2651 0.255792 0
67.6955 0.994409 0
68.933 4.98081 0
68.2481 -4.83602 0
68.5727 -1.61887 0
67.0822 -1.07767 0
65.5864 -0.339933 0
66.7602 3.68883 0
67.8918 1.1657 0
67.7381 -1.20185 0
65.6349 -3.36863 0
76.6496 -2.45964 0
73.8704 -0.289531 0
73.7728 0.421619 0
76.3034 2.32641 0
67.8119 -0.493266 0
67.8239 -0.079578 0
67.813 0.223918 0
68.4366 0.472977 0
70.8814 0.419104 0
70.7608 2.45572 0
69.7993 -1.30337 0
71.7019 -1.04818 0
70.1167 2.97143 0
72.054 5.02445 0
71.5471 -5.59519 0
70.6355 -1.21104 0
72.9549 0.926741 0
73.7998 2.94502 0
72.9176 -1.54953 0
73.351 -0.0129147 0
74.3697 0.0703137 0
76.1008 1.05168 0
76.5531 -0.3379 0
74.5766 0.00964362 0
73.8704 0.0025395 0
73.9911 1.1776 0
75.6443 -1.73624 0
74.6827 -0.173612 0
68.4489 -1.02379 0
68.0847 -0.351915 0
68.0781 0.733247 0
68.5775 0.600181 0
67.9914 0.704033 0
67.813 0.364155 0
67.7821 -0.18079 0
67.9029 -0.658201 0
74.5317 0.480344 0
75.3813 0.894981 0
74.497 -0.285506 0
74.2582 -0.0174854 0
66.416 -0.831699 0
67.7389 -0.15272 0
67.4315 -0.27432 0
67.7405 -0.382791 0
67.7667 0.316024 0
67.7706 0.563464 0
73.6753 0.204761 0
73.6576 0.0953573 0
74.067 -0.00984787 0
73.5569 -2.24803 0
70.0859 -0.0160573 0
69.6666 -1.87826 0
70.2049 1.07382 0
69.4236 0.26592 0
67.7139 2.49063 0
67.3516 4.60991 0
67.2958 -4.35488 0
68.0117 -2.28506 0
68.277 -1.48986 0
67.4797 -1.60339 0
67.7687 2.85646 0
67.9697 1.39127 0
74.7814 -0.245273 0
74.7957 -0.0607748 0
74.1306 0.0593334 0
74.2438 0.755581 0
69.0137 -3.62916 0
69.6985 -3.47018 0
69.3661 2.79904 0
69.7881 5.33595 0
68.5265 -2.73278 0
69.2383 -1.55552 0
69.0787 1.86639 0
68.6038 0.963736 0
74.0458 0.309841 0
73.3922 0.0894576 0
73.1624 -0.0130443 0
71.9781 -0.875752 0
67.3904 0.583926 0
67.753 0.0578 0
74.1229 -0.251042 0
74.7874 -1.18404 0
73.9464 0.283259 0
73.6868 0.0372568 0
68.3047 -0.654562 0
68.0211 -0.854182 0
68.5558 1.08866 0
68.0323 0.407534 0
67.8173 -0.231403 0
67.9313 -0.399212 0
67.8979 0.314035 0
67.7948 0.234479 0
65.1434 0.981889 0
67.151 0.91144 0
73.433 -1.75889 0
75.8877 -3.45433 0
75.9262 3.17978 0
73.1021 1.30044 0
67.0512 -1.7069 0
65.5895 -2.16037 0
72.8483 0.186356 0
73.3179 1.23184 0
72.1676 0.0607084 0
72.59 1.4085 0
72.0439 0.40385 0
72.4479 -0.0166277 0
73.0432 0.772344 0
72.6311 0.00293016 0
73.3182 -0.434762 0
73.0433 -1.1222 0
73.6402 0.189584 0
73.4394 0.00270912 0
67.7745 0.257678 0
67.5955 0.348806 0
66.7849 0.204794 0
65.3094 0.369968 0
67.6668 -0.186707 0
67.7493 -0.215929 0
67.3884 0.147799 0
67.3705 -0.522377 0
76.7326 0.00595015 0
74.6072 -0.571156 0
75.4391 1.10031 0
76.6432 0.532167 0
67.9075 -0.0461292 0
67.9536 -0.217372 0
67.8296 0.0821874 0
68.0876 0.140183 0
72.5858 -0.151189 0
72.33 -0.259524 0
73.3653 0.272721 0
72.9784 0.124357 0
72.0933 -0.0294069 0
71.7873 0.183813 0
73.5394 0.138352 0
72.9258 0.0404279 0
68.1067 -0.552732 0
68.6895 -1.50546 0
68.3452 1.00629 0
68.113 0.776528 0
68.5669 1.76664 0
67.5608 1.12933 0
67.8702 -1.33232 0
68.2897 -1.96639 0
74.5903 0.320781 0
74.3116 1.181 0
76.0564 -1.32138 0
75.6963 -0.148312 0
67.6114 -0.712239 0
67.6826 -0.862595 0
67.7203 0.628089 0
67.3971 0.773535 0
71.8058 -0.620921 0
72.4435 -0.334371 0
72.9562 -0.0668982 0
73.4221 -0.400621 0
72.2399 2.53046 0
73.7147 4.22012 0
73.5354 -5.17653 0
72.949 -1.92361 0
65.9731 -2.51747 0
67.4907 -2.49492 0
72.0798 -1.85094 0
72.3509 -0.640895 0
71.315 0.292449 0
73.2687 1.79059 0
65.7367 2.92348 0
66.9853 1.68256 0
72.5147 0.0136672 0
72.4383 0.267862 0
72.7084 0.469835 0
72.6232 0.120487 0
74.0018 -0.13114 0
74.0776 -0.640668 0
74.4967 1.0966 0
73.8542 0.1585 0
70.9389 0.852863 0
69.8558 0.212003 0
70.5919 -0.220837 0
71.0551 -1.94199 0
73.8998 0.32033 0
73.736 0.316104 0
74.6044 -2.28066 0
75.023 -0.752665 0
70.4838 -2.46726 0
71.0879 -1.13167 0
70.5501 1.61511 0
72.2904 3.61247 0
73.0341 -1.12288 0
73.0912 -0.190775 0
72.8833 -0.0916775 0
72.7984 -0.572934 0
72.8902 0.0886112 0
72.705 0.00208103 0
72.2464 0.0907098 0
71.8596 0.165199 0
68.9887 0.301748 0
68.8531 0.795585 0
69.0104 -0.781331 0
69.5182 -0.228887 0
69.9444 1.69 0
68.9757 1.18352 0
68.5632 -1.96783 0
68.0523 -2.03501 0
74.4149 0.0489317 0
74.3422 0.0178709 0
74.7927 0.105536 0
75.2853 0.0381388 0
68.9588 2.30884 0
69.2585 1.54294 0
68.5642 -0.586116 0
68.4663 -0.217141 0
68.4442 0.165908 0
68.8495 0.532347 0
66.8554 -0.716925 0
67.4971 -0.88092 0
76.6004 -1.02539 0
74.82 -0.759856 0
74.6716 2.10533 0
76.4458 1.84928 0
67.7636 -0.531605 0
67.8138 -0.223898 0
67.7372 0.304044 0
67.8444 0.526641 0
68.0623 0.0499182 0
68.0547 0.34179 0
68.0787 -0.199785 0
68.159 -0.0075426 0
66.1497 -0.368842 0
64.448 -0.0974608 0
72.1574 1.92318 0
74.5748 1.67024 0
73.7985 -1.26463 0
74.4664 -2.71741 0
67.5739 1.27859 0
67.2716 0.669115 0
67.7867 -0.0294799 0
67.5683 -0.01716 0
69.4993 4.23013 0
68.0134 2.49854 0
69.1634 -2.88981 0
68.5964 -5.44326 0
67.3938 0.459765 0
67.6861 0.363543 0
73.6966 0.217085 0
73.9706 0.09878 0
72.5018 -1.47984 0
73.2803 -0.356448 0
72.9484 -0.051596 0
72.9364 0.0199119 0
72.1438 -0.026395 0
72.1142 -0.739844 0
76.5746 -0.432995 0
75.8947 0.46969 0
74.8985 0.597599 0
75.5929 1.34235 0
67.4592 0.0580817 0
67.0661 -1.30343 0
67.9283 0.827052 0
68.0634 1.19683 0
68.1331 -1.53992 0
67.9064 -0.583955 0
67.7502 0.110006 0