# vtk DataFile Version 3.0
Unstructured Grid for Triangles
ASCII
DATASET UNSTRUCTURED_GRID
POINTS 29612 DOUBLE
-0.000272397 1.23686e-05 0
-0.000295789 9.5838e-06 0
-0.000277865 -3.1235e-06 0
0.002024 0.0005 0
0.00203975 0.00049875 0
0.00205 0.0005 0
0.00203975 -0.00049875 0
0.002024 -0.0005 0
0.00205 -0.0005 0
0.0020295 0.0004975 0
0.0020295 -0.0004975 0
0.00201925 0.00049625 0
0.00201925 -0.00049625 0
-0.000529747 -0.000479887 0
-0.00055 -0.0005 0
-0.000524 -0.0005 0
-0.000505983 -0.000484325 0
-0.000498 -0.0005 0
-0.000472 -0.0005 0
-0.000483864 -0.000487761 0
-0.000446 -0.0005 0
-0.000459 -0.000484239 0
-0.000429453 -0.000424878 0
-0.000447486 -0.000420717 0
-0.000441829 -0.000436609 0
-0.000512578 -0.000462101 0
-0.000493078 -0.000453594 0
-0.00050706 -0.000439006 0
-0.000419243 -0.000477545 0
-0.000440307 -0.000471837 0
-0.00043691 -0.000486724 0
-0.000516129 -0.000420948 0
-0.000495355 -0.000415432 0
-0.000511646 -0.00040128 0
-0.000394697 -0.000481197 0
-0.000406302 -0.000455143 0
-0.000537257 -0.000388197 0
-0.000531099 -0.000407297 0
-0.000523982 -0.000388328 0
-0.000370063 -0.000472956 0
-0.000368 -0.0005 0
-0.00035308 -0.000485302 0
-0.0005072 -0.00037867 0
-0.000485506 -0.000383975 0
-0.000490949 -0.000359622 0
-0.000337127 -0.000484331 0
-0.000316 -0.0005 0
-0.000326495 -0.00047415 0
-0.00055 -0.00035 0
-0.000531201 -0.000370361 0
-0.000528367 -0.000346817 0
-0.000363898 -0.000448809 0
-0.000383315 -0.000460336 0
-3.26269e-05 -0.000415503 0
-5.99662e-05 -0.000409556 0
-5.46944e-05 -0.000429488 0
-0.000529747 0.000479887 0
-0.00055 0.0005 0
-0.00055 0.000475 0
-0.00055 0.00045 0
-0.000534834 0.000429171 0
-0.000526943 0.000442611 0
-0.000534026 0.000460176 0
-0.000531099 0.000407297 0
-0.000511672 0.000401178 0
-0.000516129 0.000420948 0
-0.000524 0.0005 0
-0.000505983 0.000484325 0
-0.000531201 0.000370361 0
-0.0005072 0.00037867 0
-0.000523982 0.000388328 0
-0.00048341 0.000469132 0
-0.000483679 0.000487539 0
-0.000528367 0.000346817 0
-0.00055 0.000325 0
-0.000525657 0.000328474 0
-0.000498 0.0005 0
-0.000530382 0.0003125 0
-0.000419243 0.000477545 0
-0.000440015 0.00047335 0
-0.000425917 0.000463678 0
-0.000435138 0.000262661 0
-0.000414982 0.000274462 0
-0.000435654 0.000285217 0
-0.000459 0.000484239 0
-0.000436852 0.000487027 0
-0.000446 0.0005 0
-0.000533308 0.000292503 0
-0.00055 0.000275 0
-0.000523377 0.000276953 0
-0.000425282 0.000446352 0
-0.000409368 0.000435728 0
-0.000406302 0.000455143 0
0.002009 0.000495 0
0.001998 0.0005 0
0.00199875 0.00049375 0
0.0019885 0.0004925 0
0.001972 0.0005 0
0.00197825 0.00049125 0
0.001968 0.00049 0
0.00195775 0.00048875 0
0.001946 0.0005 0
0.0019475 0.0004875 0
0.00193725 0.00048625 0
0.00192 0.0005 0
0.001927 0.000485 0
0.00191675 0.00048375 0
0.0019065 0.0004825 0
0.001894 0.0005 0
0.00189625 0.00048125 0
0.001886 0.00048 0
0.001868 0.0005 0
0.00187575 0.00047875 0
0.0018655 0.0004775 0
0.00185515 0.00048575 0
0.001842 0.0005 0
0.001845 0.000475 0
0.00185525 0.00047625 0
0.00182564 0.0004829 0
0.001816 0.0005 0
0.0018245 0.0004725 0
0.00183475 0.00047375 0
0.00181425 0.00047125 0
0.00180295 0.000482657 0
0.00179 0.0005 0
0.00179375 0.00046875 0
0.001804 0.00047 0
0.00178168 0.000480619 0
0.001764 0.0005 0
0.00177325 0.00046625 0
0.0017835 0.0004675 0
0.00176428 0.000476631 0
0.001763 0.000465 0
0.001738 0.0005 0
0.001751 0.000484164 0
0.00175275 0.00046375 0
0.00174025 0.000475632 0
0.001712 0.0005 0
0.00172615 0.000478449 0
0.001722 0.00046 0
0.00173225 0.00046125 0
0.0017015 0.0004575 0
0.00171243 0.00047381 0
0.00169554 0.000479999 0
0.001686 0.0005 0
0.00167507 0.000479751 0
0.00168498 0.000464861 0
0.00166 0.0005 0
0.0016558 0.000471459 0
0.00167135 0.000462887 0
0.001681 0.000455 0
0.0016605 0.0004525 0
0.00167075 0.00045375 0
0.00164059 0.000461599 0
0.0016394 0.000479551 0
0.00162881 0.00046615 0
0.00162975 0.00044875 0
0.00165025 0.00045125 0
0.00164 0.00045 0
0.00161754 0.000458641 0
0.00161722 0.000478101 0
0.00159956 0.000458294 0
0.00160925 0.00044625 0
0.0016195 0.0004475 0
0.00157667 0.000460322 0
0.00158875 0.00044375 0
0.00159194 0.000480155 0
0.001599 0.000445 0
0.0015785 0.0004425 0
0.00155808 0.000456757 0
0.00155647 0.000476701 0
0.00154059 0.000466642 0
0.00153756 0.000450083 0
0.00154839 0.000450446 0
0.00156825 0.00044125 0
0.00151954 0.000480508 0
0.00154052 0.00048477 0
0.00153 0.0005 0
0.00154775 0.00043875 0
0.00152142 0.000456625 0
0.00152821 0.000445753 0
0.0015375 0.0004375 0
0.001504 0.0005 0
0.00149644 0.000485168 0
0.00151787 0.000443178 0
0.00152725 0.00043625 0
0.00150675 0.00043375 0
0.001517 0.000435 0
0.00148119 0.000450887 0
0.00148072 0.000475756 0
0.00146584 0.000463516 0
0.00150008 0.00046396 0
0.00149351 0.00044543 0
0.0015061 0.000446252 0
0.001476 0.00043 0
0.00148625 0.00043125 0
0.00146492 0.000482975 0
0.00144888 0.000473562 0
0.00146676 0.000444259 0
0.00145255 0.000453656 0
0.00145652 0.000438669 0
0.00141401 0.000479821 0
0.001426 0.0005 0
0.0014 0.0005 0
0.00144374 0.000438862 0
0.0014555 0.0004275 0
0.001435 0.000425 0
0.00144525 0.00042625 0
0.00142746 0.000438121 0
0.00141288 0.000443191 0
0.00141707 0.000432778 0
0.0013921 0.000438992 0
0.00140355 0.00045932 0
0.00138302 0.00045922 0
0.00142912 0.000458869 0
0.00140592 0.000430037 0
0.0014145 0.0004225 0
0.00136458 0.00045869 0
0.00137106 0.00044063 0
0.001394 0.00042 0
0.00138259 0.000428915 0
0.00137484 0.000477094 0
0.00139166 0.000478902 0
0.0013586 0.000478984 0
0.00133449 0.000478649 0
0.00134717 0.000461848 0
0.00137256 0.000425134 0
0.00135323 0.000424541 0
0.00136325 0.00041625 0
0.00136122 0.00042876 0
0.00131206 0.000447284 0
0.00133168 0.000456738 0
0.00131773 0.000465243 0
0.00134756 0.000440343 0
0.00132747 0.000436463 0
0.00133483 0.000426786 0
0.00131081 0.00041867 0
0.00132382 0.000422815 0
0.00131507 0.00043122 0
0.00131059 0.000480123 0
0.0013325 0.0004125 0
0.0012915 0.0004075 0
0.0012982 0.000418199 0
0.00128915 0.000426216 0
0.00126366 0.000447574 0
0.00127331 0.000430908 0
0.00128781 0.000444872 0
0.00125336 0.000428376 0
0.00130218 0.000431077 0
0.00127894 0.000416344 0
0.00124774 0.000469608 0
0.00127668 0.000464148 0
0.00126591 0.00048331 0
0.00126722 0.000418415 0
0.00125768 0.000411931 0
0.00124326 0.000413546 0
0.0012505 0.0004025 0
0.00122408 0.000450118 0
0.00120276 0.000447432 0
0.0012139 0.000432235 0
0.00124336 0.000444132 0
0.00123056 0.000427595 0
0.00122977 0.000409049 0
0.0012185 0.000469217 0
0.00122676 0.000485947 0
0.00120525 0.000486094 0
0.00121479 0.000413153 0
0.00119547 0.000424221 0
0.00120249 0.000407448 0
0.00119925 0.00039625 0
0.00119346 0.000406114 0
0.00117479 0.000447279 0
0.00114726 0.000445259 0
0.0011571 0.000427814 0
0.00119443 0.000466611 0
0.00117447 0.000421596 0
0.00118421 0.00040752 0
0.00117409 0.000404437 0
0.00116775 0.000470073 0
0.001179 0.0004855 0
0.00115473 0.000484802 0
0.0011685 0.0003925 0
0.00117875 0.00039375 0
0.00115454 0.000400551 0
0.001148 0.00039 0
0.00115825 0.00039125 0
0.00111703 0.000423398 0
0.00113786 0.000426731 0
0.00112589 0.000443871 0
0.00113234 0.000406671 0
0.00114754 0.000413371 0
0.001106 0.000442326 0
0.00109703 0.000424261 0
0.0011275 0.0003875 0
0.00113775 0.00038875 0
0.00110211 0.000480875 0
0.00108244 0.000471951 0
0.00109312 0.000458413 0
0.00111755 0.000399116 0
0.0010944 0.000392972 0
0.00110415 0.000405876 0
0.00108839 0.000407536 0
0.00106472 0.000476905 0
0.00107274 0.000457868 0
0.00108011 0.000392415 0
0.00106885 0.000404365 0
0.00106625 0.000388708 0
0.00105286 0.000419254 0
0.00105055 0.000395469 0
0.00104215 0.000439764 0
0.00106346 0.000440629 0
0.00100945 0.000451249 0
0.00102825 0.00045614 0
0.00101189 0.000468452 0
0.00107625 0.00038125 0
0.00105575 0.00037875 0
0.001066 0.00038 0
0.00103352 0.000476905 0
0.00101803 0.00048465 0
0.00103685 0.000389398 0
0.0010245 0.00038825 0
0.00103525 0.00037625 0
0.00101092 0.000399779 0
0.00101267 0.000382619 0
0.00101382 0.00042025 0
0.00103187 0.000405286 0
0.00103359 0.000424605 0
0.000987383 0.00045447 0
0.000999411 0.000435161 0
0.0009744 0.000433145 0
0.0010045 0.0003725 0
0.00101475 0.00037375 0
0.000970845 0.000465215 0
0.000952614 0.000467664 0
0.000961768 0.000449944 0
0.00099729 0.000387704 0
0.000978901 0.00039598 0
0.000985823 0.000381492 0
0.000962289 0.000393709 0
0.000974259 0.000381279 0
0.00097375 0.00036875 0
0.000963045 0.000376631 0
0.000958 0.0005 0
0.000932 0.0005 0
0.000947542 0.00048457 0
0.000949675 0.000385245 0
0.000936214 0.000389472 0
0.000940006 0.000374906 0
0.000966411 0.000412573 0
0.000944241 0.000407079 0
0.000903569 0.000424993 0
0.000921701 0.000402409 0
0.000927439 0.000427744 0
0.000889795 0.000409067 0
0.000903071 0.00040248 0
0.000925447 0.000377721 0
0.00093275 0.00036375 0
0.000907708 0.000387127 0
0.000911303 0.000370839 0
0.000911933 0.000455145 0
0.000930678 0.000473279 0
0.000911886 0.000482603 0
0.000887724 0.000388076 0
0.000899595 0.000375116 0
0.000902 0.00036 0
0.000889241 0.00036954 0
0.000836977 0.000459472 0
0.000836223 0.000483578 0
0.000820467 0.000474142 0
0.000871227 0.000403557 0
0.000861 0.000355 0
0.000868368 0.000365714 0
0.00085484 0.00036588 0
0.000847735 0.000402845 0
0.000823121 0.000421599 0
0.000826582 0.000398147 0
0.000846943 0.00042454 0
0.000838832 0.000378613 0
0.000835569 0.000363808 0
0.000844098 0.00036291 0
0.00085075 0.00035375 0
0.000851465 0.000477164 0
0.00083025 0.00035125 0
0.000822824 0.000368659 0
0.00081446 0.000357362 0
0.000805884 0.000371794 0
0.000753471 0.000477524 0
0.000738313 0.000473927 0
0.000739102 0.000461526 0
0.00079826 0.000358588 0
0.000788607 0.000376287 0
0.000781733 0.000357987 0
0.000816783 0.000384471 0
0.000807975 0.000404095 0
0.000752138 0.000404775 0
0.000767682 0.000417043 0
0.000749617 0.000421803 0
0.000752903 0.000384008 0
0.000738293 0.000393136 0
0.000772614 0.000394048 0
0.00076863 0.000371878 0
0.000765995 0.000354121 0
0.000779 0.000345 0
0.00071811 0.000453059 0
0.000738069 0.000437967 0
0.000752085 0.000365972 0
0.000728123 0.000374583 0
0.000741845 0.000354664 0
[...]
CELL_DATA 58684
VECTORS velocity DOUBLE
65.2416 0.277956 0
69.9577 0.000115114 0
69.5756 0.000472799 0
69.9464 0.00364061 0
69.655 0.00362302 0
69.9425 0.00493532 0
69.7314 0.0351252 0
67.75 -0.00537707 0
67.7371 -0.0122973 0
67.7465 -0.00549595 0
67.7992 -0.00801108 0
67.8277 -0.376491 0
67.7222 -0.0950061 0
67.8852 -0.114201 0
67.722 -0.143317 0
68.0149 -0.143876 0
67.7589 -0.0339649 0
68.1984 -0.111892 0
67.7437 -0.280844 0
68.5011 -0.0766112 0
67.7831 -0.0266737 0
68.1923 -0.267034 0
72.2597 -1.30415 0
67.7764 0.00303173 0
67.7549 0.0328012 0
67.778 0.0134385 0
67.7572 0.106679 0
67.7464 0.0158965 0
67.7708 0.145942 0
67.7813 0.0528079 0
67.8025 0.094875 0
67.7509 0.0339391 0
67.732 0.0902274 0
68.0246 0.155704 0
67.8514 1.06701 0
67.8979 0.0721782 0
67.8316 0.122914 0
68.0689 0.322047 0
69.9358 0.00209019 0
69.9289 0.00172169 0
69.921 0.0109076 0
69.9216 0.00820263 0
69.9181 0.00375346 0
69.9123 0.0125421 0
69.9174 0.0158662 0
69.9213 0.0146546 0
69.9233 0.0067589 0
69.9269 0.0184147 0
69.9337 0.0182054 0
69.9452 0.00976914 0
69.9534 0.0178604 0
69.9665 0.0187279 0
69.9764 0.0194996 0
69.9968 0.0130911 0
70.019 0.0126771 0
70.0303 0.0147564 0
70.0628 0.0144297 0
70.0989 0.00189537 0
70.1171 -1.2074e-05 0
70.1392 0.00697178 0
70.1834 0.0122756 0
70.2021 -0.0213355 0
70.2674 -0.0129925 0
70.3419 0.00978478 0
70.3527 -0.0396688 0
70.3692 -0.0400481 0
70.4251 -0.0268805 0
70.5065 0.0102126 0
70.5248 -0.0807579 0
70.593 -0.0475344 0
70.6913 0.00722233 0
70.7215 -0.121473 0
70.7822 -0.0841722 0
70.8922 -0.186182 0
70.977 0.00962044 0
71.0362 -0.154025 0
71.1083 -0.108437 0
71.2701 0.00297772 0
71.3166 -0.251093 0
71.6182 -0.197701 0
71.3678 -0.207105 0
71.6602 0.00105205 0
71.801 -0.177655 0
71.688 -0.296033 0
72.1816 -0.213436 0
72.0462 -0.267552 0
72.0171 -0.348269 0
72.207 -0.450279 0
72.5773 -0.299534 0
72.8012 -0.406599 0
72.4096 -0.346127 0
72.6793 -0.513801 0
72.9771 -0.404259 0
72.934 -0.409022 0
73.0446 -0.549403 0
73.5294 -0.485673 0
73.2771 -0.454127 0
73.3969 -0.575452 0
73.6721 -0.644951 0
73.778 -0.475804 0
74.1143 -0.476338 0
73.7939 -0.488975 0
74.1966 -0.146437 0
74.1508 -0.511463 0
74.4258 -0.45532 0
74.3035 -0.511206 0
74.4591 -0.120015 0
74.4578 -0.471071 0
74.6375 -0.481386 0
74.7768 -0.134564 0
74.7481 -0.210657 0
74.6263 -0.342337 0
74.9169 -0.292388 0
74.8656 -0.0453149 0
75.0594 -0.150242 0
74.9571 -0.0750072 0
74.9646 0.0124155 0
75.1707 -0.0832966 0
75.217 0.000637364 0
75.2446 0.1185 0
75.0805 0.236688 0
75.0016 0.0896197 0
75.2731 0.247158 0
74.981 0.304682 0
75.2149 0.424079 0
74.9454 0.164696 0
75.1761 0.395135 0
74.724 0.190971 0
75.0753 0.510557 0
74.9757 0.750387 0
74.4142 0.453282 0
74.7297 0.675928 0
74.5859 0.317639 0
74.4981 0.914327 0
74.4783 0.231022 0
74.7276 0.919594 0
74.2185 1.04279 0
73.9368 0.677134 0
73.8397 0.827941 0
74.1401 0.858827 0
74.062 0.913545 0
73.9614 0.393065 0
73.7596 1.01259 0
73.6146 1.05125 0
73.3373 0.532686 0
73.7178 0.481358 0
73.6433 0.855155 0
73.5219 0.985334 0
73.5 0.158346 0
73.1265 0.829304 0
73.0932 0.813549 0
73.0204 0.280013 0
73.2382 0.416587 0
73.0375 0.569918 0
72.9668 0.653308 0
73.1316 0.0881639 0
72.9147 0.687958 0
72.8416 0.495221 0
72.9322 0.19054 0
72.8156 0.289065 0
72.9127 0.0490927 0
72.7825 0.269262 0
72.9391 0.00307759 0
72.7637 0.197661 0
72.7672 -0.028993 0
72.9592 -0.028459 0
72.8786 -0.218031 0
72.9554 -0.234853 0
72.9962 -0.125405 0
73.1154 -0.126318 0
72.8454 -0.22739 0
72.9147 -0.336542 0
73.089 -0.0610712 0
73.0701 -0.425707 0
73.2122 -0.454894 0
73.0631 -0.270486 0
73.2167 -0.139651 0
73.2529 -0.185936 0
73.2674 -0.555214 0
73.2733 -0.0792051 0
73.4272 -0.437827 0
73.4764 -0.342504 0
73.5032 -0.445862 0
73.2665 0.00060346 0
73.6623 -0.245904 0
73.4669 -0.213288 0
73.5129 -0.000411537 0
73.5239 0.10112 0
73.7869 -0.201708 0
73.8114 -0.0973021 0
73.3159 -0.00347448 0
73.8046 0.0983574 0
73.8134 0.134857 0
73.7775 0.14474 0
73.1105 0.12343 0
73.6007 0.211309 0
73.7616 0.478922 0
73.2956 0.460289 0
73.3901 0.381535 0
73.5857 0.689691 0
73.696 0.606723 0
73.1178 0.0921158 0
73.4835 0.883478 0
73.3979 0.807195 0
72.6564 0.115906 0
73.1537 0.994471 0
73.2903 0.552272 0
72.7653 0.485121 0
72.7358 0.640221 0
72.9619 0.836836 0
73.0319 1.0866 0
72.6465 0.233686 0
72.5918 0.867215 0
72.7298 1.17002 0
72.3127 0.897933 0
72.4943 0.00495232 0
72.4943 0.609936 0
72.3153 0.842561 0
72.5409 0.129486 0
72.2215 0.795212 0
72.317 0.185266 0
72.1684 0.825777 0
72.4319 -0.0600709 0
72.006 0.21803 0
72.0451 0.357799 0
72.4945 -0.0198227 0
71.8953 0.181261 0
72.0245 -0.312153 0
72.2919 -0.100508 0
72.4184 -0.209265 0
71.9478 -0.477391 0
72.5993 -0.328903 0
72.9791 -0.0657267 0
72.1204 -0.398059 0
72.0203 -0.710534 0
72.1639 -0.83282 0
72.9074 -0.391767 0
72.4993 -1.00669 0
72.6581 -1.27902 0
73.1663 -0.141258 0
72.992 -1.45779 0
72.7309 -1.55891 0
72.8937 -1.09149 0
73.2862 -0.553992 0
73.3706 -0.69888 0
73.0556 -1.77665 0
73.728 -0.00463578 0
73.289 -1.99871 0
73.5756 -1.9178 0
73.4711 -2.05251 0
74.0295 -0.456895 0
73.8767 -1.66986 0
74.2803 -1.70288 0
74.1459 -0.00458811 0
74.4343 -2.06787 0
74.8135 -1.70405 0
74.2972 -1.20396 0
74.2234 -0.531856 0
74.7499 -1.92869 0
74.433 -0.649242 0
74.5072 -0.0624454 0
74.7031 -1.28169 0
75.1421 -1.61931 0
75.3852 -1.48348 0
74.6628 -0.23497 0
75.3547 -1.02477 0
75.485 -1.2836 0
74.6916 -0.0747182 0
75.5861 -1.16582 0
75.7386 -0.908457 0
75.4939 -0.54147 0
74.681 0.000605259 0
75.8211 -0.604205 0
75.2775 -0.124992 0
75.4857 -0.0482464 0
75.7364 -0.508149 0
75.6196 -0.314057 0
75.9853 -0.241653 0
74.8411 0.0950921 0
75.9632 -0.294509 0
75.749 0.0278048 0
75.9825 0.127946 0
74.7567 0.0220467 0
75.9843 0.466761 0
75.8976 0.571079 0
74.1412 0.0885298 0
76.0678 0.303332 0
76.1205 0.513518 0
74.9492 0.666666 0
74.698 0.302171 0
75.6232 0.416832 0
76.1354 0.778959 0
74.3189 0.165942 0
76.0068 1.18687 0
76.0985 0.811282 0
76.1059 0.916405 0
73.9202 0.733146 0
75.4087 1.34353 0
76.0741 1.3732 0
73.9026 0.123054 0
75.9737 1.63202 0
75.9279 1.67965 0
75.5079 2.59172 0
72.6792 0.194576 0
76.0898 2.30006 0
74.8803 1.75116 0
73.644 0.819356 0
73.5715 1.61122 0
76.0107 2.5546 0
75.6069 3.03166 0
73.0118 0.332263 0
75.5391 3.42203 0
69.7682 0.0108968 0
69.8104 -0.00085244 0
69.9235 0.0479432 0
69.9354 0.0430667 0
70.008 -0.00205725 0
70.1526 0.0588747 0
70.172 0.0752953 0
70.2011 0.0482968 0
70.2896 -0.00304286 0
70.4109 0.0989382 0
70.423 0.0687885 0
70.5045 -0.00370039 0
70.6671 0.111478 0
70.6832 0.114132 0
70.7125 0.0679035 0
70.808 -0.0042799 0
70.9343 0.138515 0
70.9469 0.0998637 0
71.0446 -0.00128108 0
71.2287 0.172931 0
71.2453 0.155552 0
71.4412 0.196286 0
71.2826 0.0738557 0
71.5367 0.10942 0
71.7595 0.160855 0
71.5783 0.0951452 0
71.8212 0.132328 0
71.9073 0.0916351 0
72.0034 0.157925 0
71.8393 0.102995 0
72.1028 0.0748776 0
72.2054 0.145611 0
72.0944 0.086413 0
72.3634 0.121551 0
72.3917 0.0825064 0
72.4432 0.0590514 0
72.317 0.0740387 0
72.4743 0.045671 0
72.5918 0.00914489 0
72.5077 0.0363996 0
72.6873 -0.00232888 0
72.6893 -0.0222604 0
72.741 -0.0323163 0
72.6555 0.00994947 0
72.7692 -0.0593005 0
72.8108 -0.108624 0
72.8221 -0.0628388 0
72.8051 -0.0882502 0
72.8331 -0.130269 0
72.8448 -0.169502 0
72.8651 -0.112941 0
72.8666 -0.144415 0
72.8387 -0.187413 0
72.8207 -0.268641 0
72.8477 -0.133596 0
72.8227 -0.220858 0
72.7938 -0.288971 0
72.8332 -0.153165 0
72.8498 -0.200298 0
72.7726 -0.304928 0
72.7861 -0.294883 0
72.8118 -0.166583 0
72.7674 -0.109332 0
72.7668 -0.219777 0
72.8286 -0.0797987 0
72.7482 -0.243748 0
72.7118 -0.214892 0
72.7358 -0.208473 0
72.7562 -0.133095 0
72.7241 -0.176508 0
72.7222 -0.150396 0
72.8381 0.00403211 0
72.7603 -0.134083 0
72.7635 -0.059565 0
72.785 -0.0124782 0
72.7935 -0.0328524 0
72.8235 -0.00167777 0
72.8497 0.0875487 0
72.8539 0.00366284 0
72.8806 0.0848218 0
73.0008 0.241555 0
72.9896 0.152971 0
73.1722 0.0726494 0
73.0737 0.252862 0
73.1247 0.284353 0
73.2824 0.0860225 0
73.2508 0.398246 0
73.1832 0.272117 0
73.4135 0.349209 0
73.2749 0.205598 0
73.4544 0.507804 0
73.8034 0.659398 0
73.7515 0.144147 0
73.6509 0.424539 0
73.9795 0.695471 0
73.8918 0.465306 0
73.6734 0.186692 0
74.0832 0.608368 0
74.2091 0.606574 0
74.082 0.116944 0
74.2628 0.200769 0
74.3922 0.421179 0
74.4789 0.619421 0
74.1462 0.343123 0
74.6225 0.485539 0
74.6997 0.441283 0
74.5116 0.06427 0
74.5624 0.227573 0
74.835 0.286321 0
74.7901 0.172665 0
74.3784 0.108431 0
74.8361 0.0994058 0
74.9927 -0.0516561 0
74.5423 -0.0757314 0
74.8231 0.0295928 0
74.936 -0.250076 0
74.857 -0.295454 0
74.5229 0.016789 0
74.9442 -0.398635 0
74.7741 -0.772017 0
74.4182 -0.142669 0
74.7354 -0.714341 0
74.2539 -0.304671 0
74.5287 -0.828661 0
74.3039 -0.366892 0
74.5544 -1.03253 0
74.3136 -1.18737 0
74.016 -0.2905 0
74.3193 -1.15862 0
73.9397 -1.41265 0
73.5899 -0.300094 0
74.3062 -0.916749 0
73.8907 -1.15341 0
73.7169 -1.3765 0
73.6024 -0.193199 0
73.5988 -1.19267 0
73.1513 -1.45251 0
73.1885 -1.10451 0
73.1416 -0.303578 0
72.8649 -0.987398 0
73.337 -0.428764 0
73.5042 -1.12731 0
72.9282 -1.22611 0
72.5474 -1.11041 0
72.5493 -1.01425 0
73.1994 -0.0171958 0
72.2671 -0.862785 0
72.2306 -0.735417 0
72.2961 -0.392292 0
72.4581 -0.184474 0
72.3806 -0.086123 0
72.2037 -0.514446 0
72.6834 -0.255781 0
72.0321 -0.21094 0
72.1051 -0.213014 0
72.23 -0.0534686 0
72.4452 -0.0304209 0
72.0716 0.133595 0
72.164 0.384533 0
72.402 0.112995 0
72.3611 0.0352657 0
72.2725 0.326739 0
72.3145 0.665917 0
72.3755 -0.0390782 0
72.4244 0.763668 0
72.4684 0.796403 0
72.5464 0.103029 0
72.791 1.04483 0
72.8505 0.986202 0
72.9898 0.757919 0
72.7233 0.25986 0
72.6796 0.290483 0
72.7897 0.930386 0
72.6025 0.167156 0
73.1794 1.16888 0
73.2833 1.01099 0
73.195 0.803416 0
72.8166 0.095382 0
73.6106 0.913992 0
73.6215 0.888266 0
73.2296 0.421414 0
73.5529 0.507232 0
73.2334 0.310882 0
73.6976 0.730941 0
73.062 0.206852 0
73.9042 0.656786 0
73.942 0.549935 0
73.0606 0.150412 0
73.85 0.338315 0
74.07 0.207824 0
73.9703 0.285626 0
73.405 0.0695262 0
74.0542 -0.0177981 0
74.0286 -0.0823826 0
73.658 0.253074 0
73.7404 -0.0414289 0
73.5341 0.112716 0
73.8823 -0.278627 0
73.425 0.0170258 0
73.8383 -0.318884 0
73.8052 -0.297585 0
73.3627 0.016739 0
73.7836 -0.214013 0
73.5345 -0.337276 0
73.4406 -0.303699 0
73.5449 0.0258225 0
73.3918 -0.214322 0
73.3694 -0.23966 0
73.6989 -0.091365 0
73.4925 0.0988317 0
73.5723 0.0474285 0
73.2881 -0.0566582 0
73.5762 0.027903 0
73.2226 0.164038 0
73.2237 0.284634 0
73.5142 0.0102297 0
73.4864 0.345761 0
73.3176 0.797972 0
73.4435 0.93159 0
73.6743 0.12409 0
73.4512 0.88962 0
73.6324 1.33763 0
73.4974 0.377558 0
74.1323 0.953596 0
73.792 0.147083 0
73.6572 1.07781 0
73.9158 0.0729419 0
74.0166 1.63305 0
74.1113 1.61347 0
73.796 0.0458109 0
74.3308 1.36448 0
74.4919 1.73433 0
74.8994 1.80363 0
74.317 0.142278 0
75.1947 1.86483 0
75.3329 1.65961 0
74.5709 0.245074 0
75.5019 1.88336 0
75.3784 0.833501 0
74.353 0.449575 0
74.1725 0.281396 0
75.8989 1.75842 0
75.9278 1.08455 0
76.4521 1.23503 0
74.272 0.00547136 0
76.1773 0.587093 0
76.7576 0.563698 0
74.4564 0.0470884 0
75.9042 0.5148 0
76.9646 0.0194125 0
75.9401 -0.112159 0
74.7015 0.0239232 0
76.9466 -0.339421 0
76.9961 -0.676813 0
75.4045 0.283259 0
75.8401 -1.18803 0
74.4996 -1.28148 0
76.7619 -0.891238 0
74.2894 -0.122151 0
76.9441 -1.60206 0
75.1259 3.87948 0
75.492 3.3898 0
72.0715 1.09768 0
75.1002 3.88992 0
73.7774 3.77031 0
74.6495 4.33763 0
72.3767 0.421485 0
74.1639 4.54799 0
73.5299 4.62429 0
71.6332 0.568236 0
73.5446 4.84989 0
76.924 -2.00777 0
74.3654 -0.0575972 0
76.8229 -2.29843 0
76.0243 -2.75521 0
75.5083 -2.30072 0
74.0417 -0.122396 0
76.2206 -3.20808 0
72.8155 4.6056 0
75.7682 -4.1482 0
74.0837 -0.688149 0
75.6055 -4.01702 0
74.9054 -4.75209 0
71.0009 1.40585 0
74.6982 -4.69955 0
75.3929 -2.22137 0
75.1692 -4.17632 0
73.7928 -3.07772 0
72.844 -0.482574 0
74.5141 -4.30109 0
74.0257 -4.64403 0
72.4656 4.86339 0
74.0453 -4.67056 0
73.3506 -0.237689 0
73.382 -4.96621 0
72.9603 -5.43822 0
72.4573 -0.322433 0
72.2747 -5.60264 0
72.5775 -4.03639 0
71.0987 -0.422382 0
71.6645 -5.71661 0
71.5456 -3.17951 0
72.5429 -2.34061 0
72.045 -4.89568 0
71.2735 -5.2054 0
72.7588 2.4827 0
70.4391 0.320522 0
72.2529 1.68722 0
71.4846 -0.036593 0
70.9762 -5.61101 0
72.3101 4.64557 0
70.3133 0.233854 0
71.7577 3.9805 0
70.4062 -5.60065 0
71.2049 -1.11756 0
69.8523 -4.11103 0
71.9085 5.29085 0
69.6615 1.31485 0
71.8861 5.23893 0
70.4007 4.58731 0
69.7968 0.260186 0
70.9574 4.75565 0
70.2046 -4.2337 0
70.9019 -0.330516 0
69.833 -5.73691 0
69.8831 -5.56274 0
71.1531 5.07978 0
69.9123 5.00558 0
69.3844 0.0244078 0
70.5958 5.0953 0
69.1985 3.27974 0
69.4291 1.5093 0
69.1939 -5.70998 0
69.5633 -0.759145 0
69.4392 -5.61171 0
69.1043 5.29486 0
68.7735 -5.29243 0
68.9903 -0.747255 0
68.8617 -2.36551 0
68.0303 -5.10283 0
69.8318 -2.77757 0
67.8831 -4.91667 0
68.6824 -0.205714 0
67.267 -4.74268 0
68.6835 1.92687 0
68.9687 0.30016 0
68.8085 4.50972 0
68.6255 0.0771238 0
68.6505 5.24608 0
68.5234 4.99152 0
68.4226 0.137631 0
67.9829 4.41291 0
68.3017 0.104948 0
68.1376 -4.4291 0
68.6892 -0.392601 0
69.1258 3.86303 0
67.828 0.815628 0
67.7799 4.19363 0
67.2038 -4.74633 0
68.7849 -0.168432 0
66.0719 -4.02764 0
67.8069 -0.322801 0
66.5677 -4.02006 0
68.2519 1.78038 0
67.7885 0.0652258 0
68.6 -3.60958 0
67.7796 -0.0324368 0
66.1622 -3.79216 0
67.3224 3.82501 0
67.1484 -2.96987 0
67.7715 -0.114699 0
66.3696 -3.2575 0
67.8808 2.17324 0
66.3979 1.42728 0
66.9546 3.34116 0
67.6122 -0.778851 0
66.3033 -3.58762 0
67.7247 0.405156 0
66.9282 4.4097 0
67.554 -1.62795 0
67.7861 -0.0121733 0
66.0798 -3.27015 0
66.8101 4.02359 0
67.784 0.789798 0
66.6632 3.20462 0
66.5171 3.15025 0
67.7696 0.388608 0
65.9811 2.83127 0
65.5082 -2.89394 0
67.7693 -0.161521 0
65.2605 -2.90765 0
66.8702 -1.32051 0
67.7937 -0.0645154 0
64.9696 -1.98831 0
65.9778 3.50918 0
67.7541 0.706099 0
66.799 2.291 0
65.3302 -1.76088 0
67.7351 -0.198686 0
64.8585 -1.6487 0
65.1454 2.59689 0
67.782 0.324594 0
65.3971 2.47559 0
65.6079 2.0259 0
67.7956 0.0503265 0
65.0627 2.15401 0
65.7196 -1.01204 0
67.6967 -0.417048 0
65.204 -0.918244 0
64.4037 -0.581844 0
67.2156 -0.569605 0
64.58 -0.484909 0
67.0483 0.810917 0
67.7691 0.121877 0
66.523 1.72591 0
64.9752 1.71435 0
67.692 0.160585 0
64.5369 1.1317 0
67.4585 -0.0741319 0
67.7886 -0.0201922 0
64.4766 -0.130711 0
64.8086 -0.00489357 0
67.7962 0.0152445 0
66.3818 0.284378 0
65.0881 0.410219 0
67.7939 0.00851945 0
67.2379 -3.94513 0
67.769 -0.368866 0
67.7711 0.0606576 0
68.1083 4.5511 0
68.4062 -5.2869 0
70.1785 -0.646013 0
69.2757 0.6524 0
70.4415 5.37722 0
67.7444 0.287891 0
65.637 3.36556 0
65.0571 -1.98802 0
67.7332 -0.0909192 0
67.7155 -0.494783 0
67.4443 -2.53189 0
67.7867 0.872897 0
67.8593 0.15126 0
67.7951 0.07243 0
64.9064 1.49727 0
68.5858 0.322332 0
68.0824 1.18814 0
68.1481 -0.943226 0
69.0269 -0.490428 0
72.4868 -0.73152 0
72.6172 -5.45102 0
73.7533 4.60124 0
72.1527 0.250558 0
67.6941 1.31838 0
69.0876 5.10433 0
68.1114 -4.86301 0
68.455 -1.61759 0
67.0527 -0.966467 0
65.5997 -0.107847 0
66.8632 3.96061 0
67.891 1.42633 0
67.6924 -1.23839 0
65.5698 -3.27566 0
76.649 -2.79009 0
73.9236 -0.315342 0
73.5988 0.401181 0
76.0203 1.99434 0
67.7374 -0.755611 0
67.7576 -0.0110705 0
67.7367 0.117375 0
68.3982 0.546189 0
70.8313 0.420813 0
70.7802 2.47746 0
69.6646 -1.35909 0
71.5934 -1.09021 0
70.1913 3.05667 0
72.147 4.93998 0
71.366 -5.6958 0
70.5035 -1.25949 0
72.8183 0.883107 0
73.7173 2.80092 0
72.8466 -1.64239 0
73.3507 -0.0128938 0
74.5376 0.0818288 0
76.5766 0.971755 0
75.9802 0.138339 0
74.4193 0.0101249 0
73.9414 0.00399265 0
74.2006 1.79506 0
75.6583 -0.835132 0
74.7644 -0.076277 0
68.3404 -1.00157 0
67.986 -0.434687 0
68.0568 0.989063 0
68.5388 0.663693 0
67.962 1.06051 0
67.7801 0.168811 0
67.7793 -0.034891 0
67.8311 -0.918558 0
74.3392 0.469608 0
75.1027 0.873606 0
74.6179 -0.327286 0
74.4018 -0.0212688 0
66.4013 -0.629396 0
67.8112 -0.0602532 0
67.4825 -0.290984 0
67.7937 -0.244204 0
67.79 0.146377 0
67.7609 1.00575 0
73.249 0.483643 0
73.6222 0.0569322 0
74.3106 -0.00487987 0
74.3752 -1.95517 0
69.9485 -0.0230322 0
69.5374 -1.95168 0
70.1855 1.10815 0
69.3943 0.292326 0
67.7807 2.77008 0
67.4951 4.81817 0
67.1854 -4.33916 0
67.9309 -2.23967 0
68.1807 -1.45184 0
67.4201 -1.52431 0
67.8508 3.12398 0
67.9822 1.58957 0
74.8118 -0.110753 0
74.7526 0.00966137 0
74.2587 0.0756849 0
74.3868 1.0271 0
68.8726 -3.68986 0
69.5568 -3.54827 0
69.4236 2.952 0
69.9373 5.38937 0
68.4133 -2.77355 0
69.1069 -1.61767 0
69.1 2.03101 0
68.5868 1.06557 0
73.5906 -0.431967 0
73.4856 0.00513104 0
73.5015 -0.0089737 0
72.4939 -1.36399 0
67.4031 0.878836 0
67.7895 0.04611 0
74.3742 -0.155197 0
75.0648 -0.696045 0
73.9376 0.365478 0
73.7029 0.03779 0
68.2108 -0.667854 0
67.9425 -0.976545 0
68.5342 1.21378 0
67.9666 0.724276 0
67.7932 -0.0626868 0
67.8414 -0.649816 0
67.7731 0.335114 0
67.7715 0.0670576 0
65.1898 1.25071 0
67.1661 1.16958 0
73.3746 -1.86303 0
75.8062 -3.74179 0
75.8104 2.88004 0
72.9799 1.24428 0
67.0016 -1.56533 0
65.5427 -2.01515 0
73.2732 0.0808539 0
73.9355 0.397765 0
72.6212 0.075941 0
73.5396 1.00038 0
71.9827 -0.0507861 0
72.5087 -0.0442992 0
72.5687 0.967523 0
72.556 0.0081044 0
73.6875 -0.364618 0
73.5903 -1.03719 0
73.58 0.0450437 0
73.4966 -0.00086873 0
67.8136 0.163515 0
67.6664 0.620766 0
66.7802 0.426706 0
65.3428 0.625904 0
67.7693 -0.136451 0
67.7795 -0.059289 0
67.4291 0.356513 0
67.3652 -0.468993 0
76.9706 -0.326732 0
74.7037 -0.651919 0
75.1626 1.03608 0
76.0647 0.58034 0
67.7455 -0.0606462 0
67.8129 -0.359089 0
67.7598 0.0340256 0
67.9887 0.254356 0
72.8142 -0.187647 0
72.5414 -0.439366 0
73.5323 0.0164801 0
73.3326 0.0436781 0
72.4328 0.089426 0
72.3459 0.587012 0
73.401 0.985413 0
72.9438 0.1807 0
68.0241 -0.693074 0
68.5746 -1.50192 0
68.3185 1.14257 0
68.0869 0.97116 0
68.5869 1.97004 0
67.5736 1.40492 0
67.7993 -1.3305 0
68.189 -1.94628 0
74.7955 0.374244 0
74.5716 1.65663 0
75.8672 -0.494747 0
75.4837 0.125655 0
67.5842 -0.853025 0
67.6311 -1.02054 0
67.7343 1.05877 0
67.4027 1.07662 0
72.1036 0.133986 0
72.4307 -0.166185 0
73.2554 0.0662889 0
73.7507 0.330642 0
72.2078 2.47009 0
73.7414 4.08191 0
73.3442 -5.35343 0
72.8596 -2.02165 0
65.9187 -2.39673 0
67.405 -2.44223 0
71.9726 -1.92642 0
72.27 -0.675583 0
71.2428 0.28308 0
73.1476 1.70184 0
65.829 3.21083 0
67.0236 1.94419 0
72.4821 0.00888624 0
72.2447 0.116909 0
73.24 0.236917 0
73.1024 0.0748805 0
74.08 -0.145986 0
74.1288 -0.701834 0
74.2962 1.03577 0
73.6784 0.15066 0
70.8897 0.858137 0
69.8263 0.227158 0
70.469 -0.228599 0
70.9252 -2.01571 0
73.8521 0.430539 0
73.4267 0.620819 0
75.1344 -1.62549 0
75.1263 -0.348283 0
70.3484 -2.54678 0
70.9582 -1.17543 0
70.5319 1.6365 0
72.329 3.54911 0
72.5943 -0.811329 0
72.831 -0.165248 0
73.3112 0.0313988 0
73.5464 -0.401091 0
72.8385 0.23267 0
72.6388 0.00668171 0
72.7725 0.0968289 0
72.4195 0.447502 0
68.9513 0.337325 0
68.8232 0.881883 0
68.874 -0.804468 0
69.3871 -0.239547 0
69.9515 1.78385 0
68.9712 1.31564 0
68.4413 -1.9958 0
67.9709 -1.98409 0
74.5845 0.0536735 0
74.5019 0.0205746 0
74.6391 0.14541 0
75.1162 0.198281 0
69.0047 2.50364 0
69.263 1.69296 0
68.4523 -0.573538 0
68.3574 -0.21008 0
68.397 0.193952 0
68.8053 0.598849 0
66.8351 -0.538582 0
67.4644 -0.948324 0
76.7529 -1.35586 0
74.909 -0.85367 0
74.5133 1.95356 0
76.0893 1.55046 0
67.7309 -0.791388 0
67.7991 -0.0309597 0
67.7317 0.153121 0
67.819 0.920056 0
67.9419 0.0940758 0
67.9543 0.593566 0
67.9758 -0.284011 0
68.0625 -0.0172636 0
66.1573 -0.140875 0
64.4704 0.14509 0
72.0835 1.86972 0
74.3837 1.56246 0
73.7951 -1.36409 0
74.4024 -2.91094 0
67.5861 1.5361 0
67.2731 0.937977 0
67.7921 0.00854887 0
67.6702 0.0629424 0
69.6084 4.34584 0
68.0801 2.76479 0
69.0338 -2.96531 0
68.4468 -5.48195 0
67.4237 0.778935 0
67.7376 0.487143 0
73.593 0.023626 0
73.4276 -0.312075 0
73.1733 -1.71807 0
73.6504 -0.313746 0
73.2391 0.107655 0
73.0278 0.100852 0
72.465 0.0280638 0
72.1975 -0.224103 0
76.0081 0.0677274 0
75.5361 0.558053 0
75.1611 0.694077 0
76.0919 1.44523 0
67.5253 0.217324 0
67.0214 -1.16271 0
67.9046 1.19977 0
68.0563 1.3982 0
68.0506 -1.50278 0
67.8427 -0.856741 0
67.8087 0.0812599 0
67.6119 0.45289 0