# vtk DataFile Version 3.0
Unstructured Grid for Triangles
ASCII
DATASET UNSTRUCTURED_GRID
POINTS 29612 DOUBLE
-0.000272397 1.23686e-05 0
-0.000295789 9.5838e-06 0
-0.000277865 -3.1235e-06 0
0.002024 0.0005 0
0.00203975 0.00049875 0
0.00205 0.0005 0
0.00203975 -0.00049875 0
0.002024 -0.0005 0
0.00205 -0.0005 0
0.0020295 0.0004975 0
0.0020295 -0.0004975 0
0.00201925 0.00049625 0
0.00201925 -0.00049625 0
-0.000529747 -0.000479887 0
-0.00055 -0.0005 0
-0.000524 -0.0005 0
-0.000505983 -0.000484325 0
-0.000498 -0.0005 0
-0.000472 -0.0005 0
-0.000483864 -0.000487761 0
-0.000446 -0.0005 0
-0.000459 -0.000484239 0
-0.000429453 -0.000424878 0
-0.000447486 -0.000420717 0
-0.000441829 -0.000436609 0
-0.000512578 -0.000462101 0
-0.000493078 -0.000453594 0
-0.00050706 -0.000439006 0
-0.000419243 -0.000477545 0
-0.000440307 -0.000471837 0
-0.00043691 -0.000486724 0
-0.000516129 -0.000420948 0
-0.000495355 -0.000415432 0
-0.000511646 -0.00040128 0
-0.000394697 -0.000481197 0
-0.000406302 -0.000455143 0
-0.000537257 -0.000388197 0
-0.000531099 -0.000407297 0
-0.000523982 -0.000388328 0
-0.000370063 -0.000472956 0
-0.000368 -0.0005 0
-0.00035308 -0.000485302 0
-0.0005072 -0.00037867 0
-0.000485506 -0.000383975 0
-0.000490949 -0.000359622 0
-0.000337127 -0.000484331 0
-0.000316 -0.0005 0
-0.000326495 -0.00047415 0
-0.00055 -0.00035 0
-0.000531201 -0.000370361 0
-0.000528367 -0.000346817 0
-0.000363898 -0.000448809 0
-0.000383315 -0.000460336 0
-3.26269e-05 -0.000415503 0
-5.99662e-05 -0.000409556 0
-5.46944e-05 -0.000429488 0
-0.000529747 0.000479887 0
-0.00055 0.0005 0
-0.00055 0.000475 0
-0.00055 0.00045 0
-0.000534834 0.000429171 0
-0.000526943 0.000442611 0
-0.000534026 0.000460176 0
-0.000531099 0.000407297 0
-0.000511672 0.000401178 0
-0.000516129 0.000420948 0
-0.000524 0.0005 0
-0.000505983 0.000484325 0
-0.000531201 0.000370361 0
-0.0005072 0.00037867 0
-0.000523982 0.000388328 0
-0.00048341 0.000469132 0
-0.000483679 0.000487539 0
-0.000528367 0.000346817 0
-0.00055 0.000325 0
-0.000525657 0.000328474 0
-0.000498 0.0005 0
-0.000530382 0.0003125 0
-0.000419243 0.000477545 0
-0.000440015 0.00047335 0
-0.000425917 0.000463678 0
-0.000435138 0.000262661 0
-0.000414982 0.000274462 0
-0.000435654 0.000285217 0
-0.000459 0.000484239 0
-0.000436852 0.000487027 0
-0.000446 0.0005 0
-0.000533308 0.000292503 0
-0.00055 0.000275 0
-0.000523377 0.000276953 0
-0.000425282 0.000446352 0
-0.000409368 0.000435728 0
-0.000406302 0.000455143 0
0.002009 0.000495 0
0.001998 0.0005 0
0.00199875 0.00049375 0
0.0019885 0.0004925 0
0.001972 0.0005 0
0.00197825 0.00049125 0
0.001968 0.00049 0
0.00195775 0.00048875 0
0.001946 0.0005 0
0.0019475 0.0004875 0
0.00193725 0.00048625 0
0.00192 0.0005 0
0.001927 0.000485 0
0.00191675 0.00048375 0
0.0019065 0.0004825 0
0.001894 0.0005 0
0.00189625 0.00048125 0
0.001886 0.00048 0
0.001868 0.0005 0
0.00187575 0.00047875 0
0.0018655 0.0004775 0
0.00185515 0.00048575 0
0.001842 0.0005 0
0.001845 0.000475 0
0.00185525 0.00047625 0
0.00182564 0.0004829 0
0.001816 0.0005 0
0.0018245 0.0004725 0
0.00183475 0.00047375 0
0.00181425 0.00047125 0
0.00180295 0.000482657 0
0.00179 0.0005 0
0.00179375 0.00046875 0
0.001804 0.00047 0
0.00178168 0.000480619 0
0.001764 0.0005 0
0.00177325 0.00046625 0
0.0017835 0.0004675 0
0.00176428 0.000476631 0
0.001763 0.000465 0
0.001738 0.0005 0
0.001751 0.000484164 0
0.00175275 0.00046375 0
0.00174025 0.000475632 0
0.001712 0.0005 0
0.00172615 0.000478449 0
0.001722 0.00046 0
0.00173225 0.00046125 0
0.0017015 0.0004575 0
0.00171243 0.00047381 0
0.00169554 0.000479999 0
0.001686 0.0005 0
0.00167507 0.000479751 0
0.00168498 0.000464861 0
0.00166 0.0005 0
0.0016558 0.000471459 0
0.00167135 0.000462887 0
0.001681 0.000455 0
0.0016605 0.0004525 0
0.00167075 0.00045375 0
0.00164059 0.000461599 0
0.0016394 0.000479551 0
0.00162881 0.00046615 0
0.00162975 0.00044875 0
0.00165025 0.00045125 0
0.00164 0.00045 0
0.00161754 0.000458641 0
0.00161722 0.000478101 0
0.00159956 0.000458294 0
0.00160925 0.00044625 0
0.0016195 0.0004475 0
0.00157667 0.000460322 0
0.00158875 0.00044375 0
0.00159194 0.000480155 0
0.001599 0.000445 0
0.0015785 0.0004425 0
0.00155808 0.000456757 0
0.00155647 0.000476701 0
0.00154059 0.000466642 0
0.00153756 0.000450083 0
0.00154839 0.000450446 0
0.00156825 0.00044125 0
0.00151954 0.000480508 0
0.00154052 0.00048477 0
0.00153 0.0005 0
0.00154775 0.00043875 0
0.00152142 0.000456625 0
0.00152821 0.000445753 0
0.0015375 0.0004375 0
0.001504 0.0005 0
0.00149644 0.000485168 0
0.00151787 0.000443178 0
0.00152725 0.00043625 0
0.00150675 0.00043375 0
0.001517 0.000435 0
0.00148119 0.000450887 0
0.00148072 0.000475756 0
0.00146584 0.000463516 0
0.00150008 0.00046396 0
0.00149351 0.00044543 0
0.0015061 0.000446252 0
0.001476 0.00043 0
0.00148625 0.00043125 0
0.00146492 0.000482975 0
0.00144888 0.000473562 0
0.00146676 0.000444259 0
0.00145255 0.000453656 0
0.00145652 0.000438669 0
0.00141401 0.000479821 0
0.001426 0.0005 0
0.0014 0.0005 0
0.00144374 0.000438862 0
0.0014555 0.0004275 0
0.001435 0.000425 0
0.00144525 0.00042625 0
0.00142746 0.000438121 0
0.00141288 0.000443191 0
0.00141707 0.000432778 0
0.0013921 0.000438992 0
0.00140355 0.00045932 0
0.00138302 0.00045922 0
0.00142912 0.000458869 0
0.00140592 0.000430037 0
0.0014145 0.0004225 0
0.00136458 0.00045869 0
0.00137106 0.00044063 0
0.001394 0.00042 0
0.00138259 0.000428915 0
0.00137484 0.000477094 0
0.00139166 0.000478902 0
0.0013586 0.000478984 0
0.00133449 0.000478649 0
0.00134717 0.000461848 0
0.00137256 0.000425134 0
0.00135323 0.000424541 0
0.00136325 0.00041625 0
0.00136122 0.00042876 0
0.00131206 0.000447284 0
0.00133168 0.000456738 0
0.00131773 0.000465243 0
0.00134756 0.000440343 0
0.00132747 0.000436463 0
0.00133483 0.000426786 0
0.00131081 0.00041867 0
0.00132382 0.000422815 0
0.00131507 0.00043122 0
0.00131059 0.000480123 0
0.0013325 0.0004125 0
0.0012915 0.0004075 0
0.0012982 0.000418199 0
0.00128915 0.000426216 0
0.00126366 0.000447574 0
0.00127331 0.000430908 0
0.00128781 0.000444872 0
0.00125336 0.000428376 0
0.00130218 0.000431077 0
0.00127894 0.000416344 0
0.00124774 0.000469608 0
0.00127668 0.000464148 0
0.00126591 0.00048331 0
0.00126722 0.000418415 0
0.00125768 0.000411931 0
0.00124326 0.000413546 0
0.0012505 0.0004025 0
0.00122408 0.000450118 0
0.00120276 0.000447432 0
0.0012139 0.000432235 0
0.00124336 0.000444132 0
0.00123056 0.000427595 0
0.00122977 0.000409049 0
0.0012185 0.000469217 0
0.00122676 0.000485947 0
0.00120525 0.000486094 0
0.00121479 0.000413153 0
0.00119547 0.000424221 0
0.00120249 0.000407448 0
0.00119925 0.00039625 0
0.00119346 0.000406114 0
0.00117479 0.000447279 0
0.00114726 0.000445259 0
0.0011571 0.000427814 0
0.00119443 0.000466611 0
0.00117447 0.000421596 0
0.00118421 0.00040752 0
0.00117409 0.000404437 0
0.00116775 0.000470073 0
0.001179 0.0004855 0
0.00115473 0.000484802 0
0.0011685 0.0003925 0
0.00117875 0.00039375 0
0.00115454 0.000400551 0
0.001148 0.00039 0
0.00115825 0.00039125 0
0.00111703 0.000423398 0
0.00113786 0.000426731 0
0.00112589 0.000443871 0
0.00113234 0.000406671 0
0.00114754 0.000413371 0
0.001106 0.000442326 0
0.00109703 0.000424261 0
0.0011275 0.0003875 0
0.00113775 0.00038875 0
0.00110211 0.000480875 0
0.00108244 0.000471951 0
0.00109312 0.000458413 0
0.00111755 0.000399116 0
0.0010944 0.000392972 0
0.00110415 0.000405876 0
0.00108839 0.000407536 0
0.00106472 0.000476905 0
0.00107274 0.000457868 0
0.00108011 0.000392415 0
0.00106885 0.000404365 0
0.00106625 0.000388708 0
0.00105286 0.000419254 0
0.00105055 0.000395469 0
0.00104215 0.000439764 0
0.00106346 0.000440629 0
0.00100945 0.000451249 0
0.00102825 0.00045614 0
0.00101189 0.000468452 0
0.00107625 0.00038125 0
0.00105575 0.00037875 0
0.001066 0.00038 0
0.00103352 0.000476905 0
0.00101803 0.00048465 0
0.00103685 0.000389398 0
0.0010245 0.00038825 0
0.00103525 0.00037625 0
0.00101092 0.000399779 0
0.00101267 0.000382619 0
0.00101382 0.00042025 0
0.00103187 0.000405286 0
0.00103359 0.000424605 0
0.000987383 0.00045447 0
0.000999411 0.000435161 0
0.0009744 0.000433145 0
0.0010045 0.0003725 0
0.00101475 0.00037375 0
0.000970845 0.000465215 0
0.000952614 0.000467664 0
0.000961768 0.000449944 0
0.00099729 0.000387704 0
0.000978901 0.00039598 0
0.000985823 0.000381492 0
0.000962289 0.000393709 0
0.000974259 0.000381279 0
0.00097375 0.00036875 0
0.000963045 0.000376631 0
0.000958 0.0005 0
0.000932 0.0005 0
0.000947542 0.00048457 0
0.000949675 0.000385245 0
0.000936214 0.000389472 0
0.000940006 0.000374906 0
0.000966411 0.000412573 0
0.000944241 0.000407079 0
0.000903569 0.000424993 0
0.000921701 0.000402409 0
0.000927439 0.000427744 0
0.000889795 0.000409067 0
0.000903071 0.00040248 0
0.000925447 0.000377721 0
0.00093275 0.00036375 0
0.000907708 0.000387127 0
0.000911303 0.000370839 0
0.000911933 0.000455145 0
0.000930678 0.000473279 0
0.000911886 0.000482603 0
0.000887724 0.000388076 0
0.000899595 0.000375116 0
0.000902 0.00036 0
0.000889241 0.00036954 0
0.000836977 0.000459472 0
0.000836223 0.000483578 0
0.000820467 0.000474142 0
0.000871227 0.000403557 0
0.000861 0.000355 0
0.000868368 0.000365714 0
0.00085484 0.00036588 0
0.000847735 0.000402845 0
0.000823121 0.000421599 0
0.000826582 0.000398147 0
0.000846943 0.00042454 0
0.000838832 0.000378613 0
0.000835569 0.000363808 0
0.000844098 0.00036291 0
0.00085075 0.00035375 0
0.000851465 0.000477164 0
0.00083025 0.00035125 0
0.000822824 0.000368659 0
0.00081446 0.000357362 0
0.000805884 0.000371794 0
0.000753471 0.000477524 0
0.000738313 0.000473927 0
0.000739102 0.000461526 0
0.00079826 0.000358588 0
0.000788607 0.000376287 0
0.000781733 0.000357987 0
0.000816783 0.000384471 0
0.000807975 0.000404095 0
0.000752138 0.000404775 0
0.000767682 0.000417043 0
0.000749617 0.000421803 0
0.000752903 0.000384008 0
0.000738293 0.000393136 0
0.000772614 0.000394048 0
0.00076863 0.000371878 0
0.000765995 0.000354121 0
0.000779 0.000345 0
0.00071811 0.000453059 0
0.000738069 0.000437967 0
0.000752085 0.000365972 0
0.000728123 0.000374583 0
0.000741845 0.000354664 0
[...]
CELL_DATA 58684
VECTORS velocity DOUBLE
65.8116 0.533964 0
70.5359 4.71529e-06 0
71.0118 2.86263e-05 0
70.558 -0.00167742 0
71.0224 0.000330881 0
70.5708 -0.00759672 0
71.0331 0.00497488 0
67.8766 0.00690828 0
67.9162 -0.0286019 0
68.1055 0.00429032 0
68.233 0.00516378 0
68.2878 -0.211788 0
68.0101 -0.0971002 0
68.3653 -0.0642203 0
67.9729 -0.170764 0
68.5081 -0.0901453 0
67.8806 -0.136337 0
68.7324 -0.0950354 0
68.0774 -0.264675 0
69.0753 -0.0672492 0
67.8882 -0.141262 0
68.718 -0.218201 0
72.992 -1.29677 0
67.812 0.0200606 0
67.8366 0.0790789 0
67.8093 0.0373293 0
67.9455 0.191607 0
67.9112 0.0316604 0
67.9179 0.237347 0
68.1104 0.0469712 0
67.8967 0.201678 0
68.0306 0.0408803 0
67.8482 0.187067 0
68.4686 0.104172 0
68.2824 0.805745 0
68.3079 0.0577702 0
67.9203 0.25528 0
68.5214 0.237255 0
70.5779 -0.00522804 0
70.5938 -0.000136705 0
70.6251 -0.0151897 0
70.6279 -0.0134334 0
70.6468 -0.000244634 0
70.687 -0.0189288 0
70.6926 -0.0273865 0
70.6983 -0.0196888 0
70.7238 -0.000831382 0
70.762 -0.0376724 0
70.7637 -0.0324165 0
70.7888 -0.0016205 0
70.8462 -0.0472082 0
70.8494 -0.0527985 0
70.857 -0.0335591 0
70.8857 -0.00324605 0
70.9309 -0.0634586 0
70.9304 -0.0478212 0
70.9582 -0.00522375 0
71.0315 -0.0849653 0
71.0313 -0.0790499 0
71.0398 -0.0464651 0
71.0852 -0.00190686 0
71.1174 -0.098258 0
71.1473 -0.0638379 0
71.2097 -0.00444845 0
71.2403 -0.111299 0
71.2447 -0.105079 0
71.2806 -0.0768203 0
71.3112 -0.00376638 0
71.3326 -0.113558 0
71.3662 -0.076601 0
71.4022 -0.00430167 0
71.4271 -0.120113 0
71.4547 -0.0878175 0
71.5045 -0.141819 0
71.5181 -0.00217682 0
71.5488 -0.0912199 0
71.572 -0.0613002 0
71.6113 -0.00413868 0
71.6405 -0.111559 0
71.7225 -0.0683627 0
71.654 -0.0840539 0
71.7074 -0.00219955 0
71.7367 -0.0449056 0
71.7326 -0.0821446 0
71.8035 -0.0350849 0
71.7953 -0.0411613 0
71.8046 -0.069257 0
71.8376 -0.0740984 0
71.8721 -0.0157492 0
71.8999 -0.0220025 0
71.8602 -0.0374878 0
71.8882 -0.0336335 0
71.9021 -0.000467026 0
71.8968 -0.0156799 0
71.9271 -0.00367911 0
71.9455 0.026883 0
71.917 0.0195634 0
71.942 0.0269797 0
71.9384 0.0486501 0
71.9307 0.0439465 0
71.9311 0.0827418 0
71.9482 0.057219 0
71.9154 0.025558 0
71.9517 0.0911665 0
71.9332 0.0887373 0
71.9505 0.102682 0
71.9196 0.0245484 0
71.9448 0.109886 0
71.9394 0.123917 0
71.9415 0.0652894 0
71.9288 0.068764 0
71.9361 0.100558 0
71.9413 0.11728 0
71.9417 0.0401451 0
71.944 0.0834325 0
71.9449 0.0499963 0
72.0023 0.00609217 0
71.9451 0.0857977 0
71.949 0.0785799 0
71.9711 0.0289796 0
72.0543 -0.0337036 0
72.0116 0.00265075 0
71.979 0.00463979 0
72.1232 -0.0726873 0
72.0297 -0.0633673 0
72.0969 -0.0310089 0
72.0433 -0.0734523 0
72.2658 -0.0563588 0
72.0907 -0.113345 0
72.1622 -0.222755 0
72.4878 -0.199778 0
72.2938 -0.254035 0
72.3683 -0.124836 0
72.4308 -0.40898 0
72.431 -0.0966469 0
72.2958 -0.36929 0
72.5919 -0.571444 0
72.8719 -0.433516 0
72.9836 -0.600104 0
72.7008 -0.481616 0
72.7002 -0.552031 0
72.8729 -0.292119 0
72.9472 -0.736092 0
73.0628 -0.835056 0
73.527 -0.620633 0
73.1201 -0.453196 0
73.0615 -0.736148 0
73.223 -0.908947 0
73.3523 -0.177287 0
73.6799 -1.02947 0
73.699 -1.1438 0
74.2029 -0.646077 0
73.8099 -0.621665 0
73.8451 -0.967566 0
73.9946 -1.15919 0
73.9459 -0.179003 0
74.0564 -1.33865 0
74.4002 -1.37769 0
74.6666 -0.882553 0
74.5494 -1.06619 0
74.9178 -0.825188 0
74.6674 -1.35533 0
74.8638 -0.274429 0
74.7232 -1.23831 0
75.1767 -1.05667 0
75.0873 -0.269998 0
75.469 -1.07194 0
75.5958 -0.839055 0
75.4974 -0.448438 0
75.4688 -0.212721 0
75.5083 -1.09401 0
75.6796 -1.10004 0
75.4363 -0.113789 0
75.8708 -0.689769 0
75.9781 -0.553995 0
75.7664 -0.418394 0
75.6152 -0.152143 0
75.5967 -0.118648 0
76.0777 -0.535545 0
75.5467 0.015539 0
76.1097 -0.208449 0
76.0867 0.0482013 0
76.093 0.072717 0
75.4394 0.000477693 0
75.9586 0.353625 0
75.9762 0.165327 0
75.6202 0.337672 0
75.4861 0.479555 0
75.9869 0.530565 0
75.7899 0.619848 0
75.3412 0.0882274 0
75.6813 0.708029 0
75.636 0.911646 0
75.5457 0.85217 0
74.7979 0.126466 0
75.3958 0.625252 0
75.0917 1.03894 0
74.7876 0.59876 0
74.9428 0.49567 0
74.9113 1.02346 0
74.94 1.07623 0
74.8156 0.117927 0
74.6376 1.0461 0
74.5091 0.876382 0
74.3736 0.013247 0
74.3348 0.706094 0
74.6292 0.575658 0
74.2802 0.143569 0
74.2153 0.0745526 0
74.2722 0.467307 0
74.0931 0.584816 0
74.3388 -0.0292672 0
73.9059 0.119599 0
73.935 0.339244 0
73.8244 -0.164331 0
74.3906 -0.0115209 0
74.113 -0.230395 0
73.8491 -0.338726 0
74.3392 -0.0951813 0
73.8475 -0.480817 0
74.2977 -0.407145 0
73.8977 -0.530369 0
74.5699 -0.316399 0
74.081 -0.80791 0
74.0118 -0.951716 0
74.5354 -0.156799 0
74.1918 -1.12268 0
74.5553 -1.30772 0
74.5107 -0.996703 0
74.6815 -0.607292 0
74.5885 -1.61698 0
74.8851 -0.543103 0
75.1007 -0.0841836 0
74.5375 -1.17358 0
74.8274 -1.60819 0
75.0717 -1.80266 0
75.1685 -0.435804 0
75.3023 -1.43331 0
75.6724 -1.56158 0
75.2449 -0.138967 0
75.8987 -1.3762 0
75.7844 -1.66437 0
75.429 -1.14697 0
75.446 -0.461121 0
75.6001 -0.504128 0
76.0309 -1.48105 0
75.5673 -0.00495196 0
76.1959 -1.49691 0
76.388 -1.23681 0
76.3139 -1.36952 0
75.8031 -0.198885 0
76.2259 -0.863858 0
76.5599 -0.671652 0
75.7357 -0.00285095 0
76.6192 -0.701984 0
76.5389 -0.373943 0
76.2412 -0.503286 0
75.9116 -0.195941 0
76.6321 -0.438283 0
76.0681 -0.21624 0
75.8434 -0.0105581 0
76.4443 -0.253474 0
76.6257 -0.155564 0
76.5858 -0.0938512 0
75.9717 -0.0395412 0
76.4399 -0.0284626 0
76.5624 -0.0103664 0
75.9161 0.0107826 0
76.4924 0.0957136 0
76.4338 0.114025 0
76.4063 0.00536672 0
75.7987 -0.000802463 0
76.393 0.0866943 0
76.2657 0.0736354 0
76.3779 0.103953 0
76.4033 0.063709 0
76.4128 0.0544938 0
76.4161 0.00152765 0
75.9018 0.129316 0
76.4033 -0.000955256 0
76.4925 0.0611752 0
76.5577 -0.0824143 0
75.856 0.0323934 0
76.7368 0.0981605 0
76.72 0.2275 0
75.1888 0.0823286 0
76.8266 -0.136269 0
77.0188 0.126446 0
75.9742 0.559299 0
75.7517 0.273447 0
76.5181 0.29469 0
77.1184 0.373139 0
75.3716 0.151758 0
77.0918 0.792689 0
77.1769 0.246308 0
77.1903 0.380497 0
74.9365 0.67921 0
76.4769 1.05736 0
77.2568 0.995092 0
74.9288 0.113393 0
77.1371 1.29037 0
77.0512 1.42696 0
76.6236 2.45107 0
73.6094 0.191218 0
77.3034 2.08784 0
75.9588 1.58554 0
74.6408 0.768266 0
74.5333 1.53492 0
77.1982 2.39073 0
76.7202 2.9421 0
73.9571 0.314632 0
76.6448 3.37204 0
71.038 0.00183843 0
71.042 8.36116e-05 0
71.0519 0.00438919 0
71.0523 0.00372644 0
71.0562 -2.65889e-05 0
71.0645 0.00373786 0
71.0647 0.00439696 0
71.0657 0.0022015 0
71.0671 2.97606e-05 0
71.0687 0.00153697 0
71.0685 0.0010769 0
71.0678 -0.000313818 0
71.0666 -0.00123263 0
71.066 -0.00159753 0
71.0656 -0.00170896 0
71.0628 -0.000498347 0
71.0588 -0.00602424 0
71.0585 -0.00527334 0
71.0539 -0.00137926 0
71.0443 -0.0119822 0
71.0437 -0.0114851 0
71.031 -0.0163594 0
71.0427 -0.006544 0
71.026 -0.0114594 0
71.0107 -0.017297 0
71.0253 -0.0106414 0
71.0079 -0.013966 0
71.0029 -0.0111252 0
70.9986 -0.0154379 0
71.0091 -0.00938942 0
70.995 -0.00775803 0
70.9923 -0.0108099 0
70.9973 -0.00637583 0
70.9944 -0.000819065 0
70.9946 0.00452778 0
70.9966 0.0017991 0
70.993 -0.00334442 0
70.9988 0.00800769 0
71.0117 0.0122697 0
71.0026 0.00502421 0
71.0355 0.0416819 0
71.0332 0.0210624 0
71.0502 0.0303281 0
71.0293 0.0201523 0
71.0605 0.0529588 0
71.1174 0.0759607 0
71.1496 0.0512312 0
71.1091 0.0736656 0
71.1799 0.0970003 0
71.1913 0.122244 0
71.2806 0.0723374 0
71.244 0.095264 0
71.3143 0.131877 0
71.3945 0.213529 0
71.4219 0.105295 0
71.4492 0.164995 0
71.5193 0.250314 0
71.5996 0.17646 0
71.4743 0.194017 0
71.656 0.304453 0
71.6643 0.303471 0
71.7274 0.197188 0
71.834 0.134989 0
71.8984 0.308451 0
71.5296 0.0918844 0
71.9957 0.364553 0
72.239 0.440456 0
72.1233 0.368425 0
72.0288 0.216718 0
72.3291 0.459375 0
72.3891 0.395051 0
72.5888 0.196362 0
72.273 0.385002 0
72.5593 0.423368 0
72.6806 0.464225 0
72.3914 0.12144 0
72.6349 0.342384 0
72.9407 0.513793 0
72.7321 0.273919 0
73.0223 0.436416 0
73.2267 0.47439 0
73.0792 0.371779 0
73.2784 0.131247 0
73.3024 0.39883 0
73.4315 0.466516 0
73.3687 0.116362 0
73.5485 0.446094 0
73.356 0.337181 0
73.7103 0.311627 0
73.4655 0.246023 0
73.7328 0.403236 0
73.971 0.322653 0
73.796 0.0843328 0
73.7908 0.271256 0
74.0549 0.284388 0
73.9571 0.167924 0
73.7635 0.0972779 0
74.1041 0.181918 0
74.147 0.103511 0
73.9438 0.0144334 0
74.0484 0.01022 0
74.1724 -0.00330701 0
74.2088 0.00736116 0
74.0107 0.0585364 0
74.2196 -0.0663532 0
74.2098 -0.134188 0
74.0017 -0.0516587 0
74.1103 -0.0652002 0
74.1566 -0.242166 0
74.1208 -0.21063 0
73.9924 -0.0284439 0
74.113 -0.269569 0
74.0754 -0.309422 0
73.9266 -0.0996914 0
74.0525 -0.236634 0
73.9465 -0.395721 0
73.9211 -0.264987 0
73.949 -0.0627991 0
73.8975 -0.343592 0
73.7757 -0.360486 0
73.8316 -0.0834342 0
73.7829 -0.212372 0
73.7827 -0.0701283 0
73.7132 -0.157084 0
73.8045 -0.106991 0
73.6702 -0.275851 0
73.5958 -0.088278 0
73.7321 -0.00557033 0
73.6188 -0.0798211 0
73.5741 0.0826034 0
73.7423 0.0846991 0
73.654 -0.0792728 0
73.5965 0.167587 0
73.5636 0.240172 0
73.7498 0.0342145 0
73.5745 0.314753 0
73.6652 0.578205 0
73.6786 0.562351 0
73.8714 0.177283 0
73.8239 0.708446 0
73.8076 0.185869 0
73.619 0.308128 0
73.7695 0.705725 0
73.9657 0.966879 0
73.9855 1.05952 0
73.8473 0.0129667 0
74.2367 1.32201 0
74.2526 1.29873 0
74.4222 1.14315 0
74.4649 0.518161 0
74.7179 0.534744 0
74.426 1.30711 0
74.1728 0.294179 0
74.7632 1.45204 0
74.7458 1.4227 0
74.8577 1.22882 0
74.7053 0.318947 0
75.0216 1.30607 0
75.4603 1.6025 0
75.0189 0.488895 0
74.9669 0.581593 0
75.3031 1.18013 0
75.8001 1.37265 0
74.7761 0.367702 0
75.8688 1.42612 0
75.9626 1.19172 0
75.2511 0.185642 0
76.1896 0.962421 0
76.2662 0.868089 0
76.105 0.429516 0
75.5144 0.251522 0
75.6101 0.36928 0
76.1407 0.679152 0
75.4077 0.297281 0
76.3582 0.528813 0
76.3978 0.333506 0
76.1239 0.0674643 0
75.4732 0.0584127 0
76.3146 -0.123165 0
76.2949 -0.25029 0
75.9049 0.0493804 0
75.8114 -0.214983 0
75.7 0.017756 0
76.1754 -0.328062 0
75.5991 0.0880534 0
75.9851 -0.672659 0
75.9645 -0.667449 0
75.4744 0.0168847 0
75.7113 -0.593938 0
75.4533 -0.779905 0
75.6077 -0.776 0
75.2542 -0.0484401 0
75.0344 -0.763319 0
74.9756 -0.845597 0
75.6233 -0.33715 0
75.1683 -0.365922 0
75.346 -0.121108 0
74.7001 -0.714803 0
75.1281 -0.011867 0
74.646 -0.46058 0
74.7307 -0.282031 0
75.2036 -0.0236758 0
74.9047 -0.166307 0
74.4474 0.13114 0
74.4412 0.302601 0
75.0658 0.104179 0
74.4739 0.522908 0
74.5529 0.671386 0
74.9639 -0.0258964 0
74.9611 0.672088 0
75.1253 0.171383 0
74.6857 1.00173 0
75.1811 0.0733735 0
74.8068 1.22945 0
74.9476 1.35391 0
75.1139 0.0276847 0
75.1362 1.19096 0
75.4137 1.80555 0
75.7511 1.84389 0
75.3362 0.261635 0
75.5874 1.74267 0
76.053 2.1109 0
75.2839 1.0532 0
76.367 1.29689 0
75.5254 0.246277 0
75.8706 1.79938 0
75.6953 0.108725 0
76.6069 2.17467 0
76.7603 1.95236 0
75.5188 0.074507 0
76.6807 1.45267 0
77.1292 1.69937 0
77.5177 1.56829 0
76.1261 0.115597 0
77.7188 1.37757 0
77.8319 1.17259 0
76.387 0.158332 0
77.8871 1.22596 0
77.3415 0.386789 0
76.2907 0.431485 0
76.0477 0.318915 0
78.0689 0.894569 0
77.9826 0.324652 0
78.3327 0.213223 0
76.0482 0.00662239 0
77.871 -0.16449 0
78.3064 -0.503094 0
76.2116 0.0166005 0
77.692 -0.182861 0
78.2814 -0.995708 0
77.3541 -0.674065 0
76.3653 -0.162178 0
78.1695 -1.26863 0
78.0529 -1.54678 0
77.1569 -0.179112 0
76.9173 -1.73411 0
75.5456 -1.49796 0
77.9532 -1.59096 0
75.6738 -0.179551 0
77.7791 -2.28092 0
76.1613 3.87643 0
76.5859 3.33417 0
72.9192 1.06708 0
76.126 3.88843 0
74.6943 3.77684 0
75.6257 4.37559 0
73.2578 0.397319 0
75.0856 4.60397 0
74.3929 4.69403 0
72.4319 0.558316 0
74.4034 4.93462 0
77.7149 -2.56705 0
75.8283 -0.105999 0
77.5513 -2.79911 0
76.7971 -3.11675 0
76.3525 -2.66294 0
75.3066 -0.149002 0
76.8852 -3.53197 0
73.6272 4.68801 0
76.3307 -4.32936 0
75.1852 -0.787066 0
76.1645 -4.17834 0
75.4543 -4.83638 0
71.7461 1.39599 0
75.2322 -4.73704 0
76.1948 -2.49556 0
75.7116 -4.26715 0
74.4229 -3.1041 0
73.731 -0.489094 0
75.0804 -4.33758 0
74.5614 -4.61116 0
73.2399 4.96281 0
74.5875 -4.66494 0
74.3378 -0.250185 0
73.9107 -4.89704 0
73.4625 -5.35121 0
73.2756 -0.319113 0
72.7512 -5.47356 0
73.127 -3.9568 0
71.7492 -0.390696 0
72.1202 -5.56368 0
72.1092 -3.04738 0
73.2228 -2.32787 0
72.5536 -4.76088 0
71.7564 -5.02957 0
73.6203 2.44765 0
71.1373 0.311512 0
73.1003 1.65251 0
72.167 -0.0270698 0
71.4307 -5.41534 0
73.0757 4.74869 0
71.0064 0.225647 0
72.5106 4.05521 0
70.8578 -5.38025 0
71.8394 -1.06668 0
70.3494 -3.81456 0
72.6352 5.42645 0
70.3215 1.27494 0
72.6072 5.37732 0
71.0611 4.70703 0
70.4483 0.256059 0
71.6395 4.88176 0
70.6995 -4.01117 0
71.5275 -0.319097 0
70.2944 -5.4906 0
70.3476 -5.30474 0
71.8383 5.21818 0
70.5438 5.14397 0
70.0264 0.0113586 0
71.2523 5.23764 0
69.8265 3.29902 0
70.0829 1.47148 0
69.6505 -5.43746 0
70.14 -0.65261 0
69.8994 -5.34183 0
69.7036 5.45899 0
69.244 -4.98434 0
69.5911 -0.629018 0
69.4384 -2.0457 0
68.507 -4.75723 0
70.3639 -2.4906 0
68.3598 -4.56849 0
69.2805 -0.16873 0
67.7477 -4.37677 0
69.3136 1.90905 0
69.5918 0.285524 0
69.4225 4.62831 0
69.1912 0.0738441 0
69.2382 5.40647 0
69.1179 5.14193 0
68.955 0.129486 0
68.576 4.52937 0
68.8131 0.100916 0
68.6447 -4.06189 0
69.2925 -0.336655 0
69.7478 3.92706 0
68.1234 0.64661 0
68.3823 4.32615 0
67.6876 -4.3791 0
69.3757 -0.1499 0
66.5634 -3.65129 0
67.9988 -0.359075 0
67.0838 -3.62815 0
68.8627 1.83404 0
67.8115 0.154609 0
69.1298 -3.21976 0
67.818 -0.125746 0
66.6734 -3.40823 0
67.9197 3.9538 0
67.6981 -2.60589 0
67.9052 -0.271053 0
66.9017 -2.88319 0
68.5016 2.25775 0
66.9863 1.61722 0
67.5488 3.4622 0
68.0545 -0.442568 0
66.8103 -3.20803 0
67.9094 0.446064 0
67.4952 4.56888 0
68.1648 -1.41097 0
67.8103 -0.0919582 0
66.5926 -2.89361 0
67.3983 4.17012 0
68.0445 0.630983 0
67.2459 3.35306 0
67.0898 3.31512 0
67.943 0.427146 0
66.5268 3.00385 0
66.019 -2.52998 0
67.9081 -0.261245 0
65.7736 -2.54099 0
67.4683 -1.07909 0
67.8797 -0.189272 0
65.4674 -1.64542 0
66.5149 3.68635 0
68.0576 0.584454 0
67.3937 2.45298 0
65.8446 -1.42625 0
67.9494 -0.172063 0
65.3765 -1.31763 0
65.6678 2.80838 0
67.9707 0.337034 0
65.9395 2.67567 0
66.1764 2.23099 0
67.8236 0.0730291 0
65.5999 2.37535 0
66.2994 -0.72933 0
67.9933 -0.244835 0
65.7736 -0.623073 0
64.933 -0.282739 0
67.7823 -0.35727 0
65.0971 -0.179755 0
67.6541 0.92821 0
67.8924 0.133832 0
67.101 1.91091 0
65.5027 1.94626 0
67.9382 0.174785 0
65.0709 1.39428 0
67.9115 0.064324 0
67.838 -0.087487 0
65.0041 0.1585 0
65.3623 0.272518 0
67.9105 0.000472077 0
66.9819 0.5057 0
65.6166 0.684095 0
67.8768 -0.0208804 0
67.7604 -3.55119 0
68.0543 -0.358615 0
67.8269 0.163538 0
68.712 4.68914 0
68.871 -4.96336 0
70.7658 -0.588432 0
69.9208 0.618379 0
71.0886 5.53665 0
67.8777 0.339951 0
66.1587 3.54737 0
65.5876 -1.64871 0
67.8237 -0.178741 0
68.0487 -0.40252 0
68.0161 -2.20927 0
68.1567 0.615788 0
67.9404 0.272881 0
67.9227 0.0804705 0
65.4451 1.7421 0
69.1538 0.32653 0
68.6257 1.14284 0
68.7145 -0.801489 0
69.6297 -0.414738 0
73.2902 -0.7235 0
73.1034 -5.33612 0
74.6327 4.66525 0
73.0196 0.236251 0
68.261 1.25259 0
69.6897 5.26074 0
68.5929 -4.5093 0
69.0578 -1.40654 0
67.654 -0.736892 0
66.1604 0.158964 0
67.4454 4.11881 0
68.4451 1.4105 0
68.2529 -0.977892 0
66.0756 -2.90104 0
77.3591 -3.19783 0
75.0958 -0.376572 0
74.5947 0.366879 0
77.2317 1.70434 0
68.1469 -0.433162 0
67.8911 -0.0647427 0
67.8886 0.19357 0
68.9364 0.545702 0
71.5586 0.412756 0
71.4947 2.47304 0
70.2434 -1.18758 0
72.2704 -1.05957 0
70.864 3.06878 0
72.8927 5.0542 0
71.8267 -5.52261 0
71.0955 -1.15402 0
73.747 0.848294 0
74.6641 2.74846 0
73.6263 -1.67148 0
74.3812 -0.00763752 0
76.251 0.00839019 0
78.3611 -0.0233419 0
76.6129 -0.13118 0
75.4797 0.00929464 0
75.7154 0.00814047 0
76.838 2.04652 0
76.4187 0.0811003 0
75.9745 0.00832982 0
68.9378 -0.890151 0
68.4931 -0.299608 0
68.5625 0.869771 0
69.1114 0.686655 0
68.4493 0.863834 0
67.902 0.323615 0
67.8127 -0.117228 0
68.3266 -0.551602 0
75.3732 0.423987 0
76.1259 0.729573 0
75.9762 -0.52901 0
75.9627 -0.0534538 0
67.0186 -0.403973 0
67.921 -0.0819046 0
67.92 -0.0914685 0
67.9585 -0.300303 0
67.872 0.254083 0
68.18 0.724524 0
75.0691 1.52483 0
75.2446 0.144142 0
75.7975 -0.00252229 0
76.6328 -0.790148 0
70.5429 -0.00645775 0
70.099 -1.68934 0
70.8662 1.08479 0
70.0316 0.279237 0
68.398 2.85106 0
68.0649 4.97355 0
67.6848 -3.96071 0
68.508 -1.96456 0
68.7774 -1.29247 0
68.0372 -1.29911 0
68.4633 3.1753 0
68.5594 1.65446 0
75.971 0.0104902 0
75.8679 0.0503785 0
76.0835 0.068834 0
76.6224 1.04085 0
69.3918 -3.32605 0
70.0709 -3.24458 0
70.066 2.94956 0
70.5671 5.55225 0
68.9723 -2.41416 0
69.6921 -1.37235 0
69.7327 1.98555 0
69.1805 1.09885 0
74.4947 -0.113753 0
75.076 0.0265155 0
75.4476 -0.0104857 0
75.4723 -1.71312 0
67.9431 0.888699 0
67.8488 0.0518577 0
75.8586 -0.0350147 0
76.3559 -0.0642524 0
75.8271 0.58279 0
75.3786 0.0703054 0
68.7696 -0.568462 0
68.4909 -0.714108 0
69.1376 1.24199 0
68.4191 0.508026 0
67.8947 -0.16918 0
68.2698 -0.362944 0
68.0792 0.331399 0
67.8596 0.179081 0
65.755 1.48747 0
67.7565 1.29259 0
74.1683 -1.88662 0
76.4423 -3.95337 0
76.9688 2.76318 0
73.9061 1.18281 0
67.5956 -1.31376 0
66.099 -1.68273 0
75.3887 -0.0228651 0
75.7976 -0.712393 0
75.3192 0.088109 0
76.3337 -0.128518 0
74.4165 -1.22893 0
74.6305 -0.167169 0
73.872 0.0118836 0
74.3681 -0.00955443 0
75.6213 -0.206947 0
75.9156 -0.640153 0
75.0743 0.231549 0
75.0981 0.00593858 0
67.9035 0.232323 0
67.9753 0.526415 0
67.3875 0.591237 0
65.8777 0.883191 0
67.9556 -0.107712 0
67.8669 -0.127357 0
67.8965 0.389703 0
67.8915 -0.252689 0
78.1046 -1.31154 0
75.9596 -0.91248 0
76.2147 0.876186 0
77.0189 0.021812 0
68.1289 -0.0379539 0
68.2653 -0.190975 0
67.8972 0.0771458 0
68.4232 0.175985 0
75.0176 -0.272323 0
74.9846 -0.773738 0
75.144 -0.0515092 0
75.2977 -0.0163487 0
75.1574 0.354149 0
75.6204 1.08546 0
74.4794 1.07229 0
74.5948 0.141214 0
68.5695 -0.466034 0
69.1733 -1.31898 0
68.899 1.15582 0
68.5895 0.906494 0
69.2126 1.9942 0
68.1649 1.42713 0
68.3793 -1.10589 0
68.7943 -1.71252 0
76.6689 0.143812 0
77.0368 1.6414 0
76.3949 0.0577391 0
76.3811 0.173935 0
68.0957 -0.530714 0
68.1789 -0.668846 0
68.1788 0.833789 0
67.9792 1.08113 0
75.2063 1.65491 0
74.5594 0.454755 0
75.1013 0.14795 0
75.2507 0.954795 0
73.0253 2.45856 0
74.6295 4.1146 0
73.8494 -5.28566 0
73.5775 -2.00488 0
66.4593 -2.0494 0
68.0013 -2.13403 0
72.6328 -1.87085 0
73.0427 -0.668612 0
72.0222 0.290799 0
74.078 1.63186 0
66.3604 3.38478 0
67.6278 2.10252 0
74.4247 -0.0529889 0
74.2592 -0.602073 0
75.5571 -0.073103 0
75.4187 0.00730319 0
75.3717 -0.197984 0
75.2636 -0.844883 0
75.3142 0.944204 0
74.6877 0.143373 0
71.6275 0.850003 0
70.4862 0.217445 0
71.0623 -0.213746 0
71.5073 -1.89188 0
75.6865 0.719373 0
75.3117 1.49586 0
76.5925 -0.265131 0
76.2661 0.026926 0
70.8811 -2.33708 0
71.5757 -1.09898 0
71.2423 1.62758 0
73.1381 3.5867 0
73.9829 0.921445 0
74.0459 0.148751 0
75.3189 0.137569 0
76.0701 0.0831387 0
74.4794 0.127162 0
74.3922 -0.00521023 0
75.4678 0.106126 0
75.6153 0.823797 0
69.5623 0.329633 0
69.4275 0.883988 0
69.4873 -0.680325 0
69.9636 -0.206702 0
70.6266 1.75027 0
69.6055 1.30755 0
69.0532 -1.71835 0
68.5597 -1.75305 0
76.2888 -0.0846131 0
76.1523 -0.0542435 0
75.6947 0.139118 0
76.1176 0.211163 0
69.6309 2.47571 0
69.9092 1.65038 0
69.0323 -0.517438 0
68.9306 -0.193936 0
68.9277 0.18767 0
69.4187 0.584605 0
67.4499 -0.331369 0
68.0171 -0.642422 0
77.7597 -2.06848 0
76.0653 -1.09517 0
75.5534 1.83086 0
77.3056 1.15626 0
68.1346 -0.455154 0
67.8697 -0.153013 0
67.8206 0.2438 0
68.1859 0.684918 0
68.3772 0.0621832 0
68.3984 0.428176 0
68.4633 -0.163645 0
68.5706 0.00228971 0
66.737 0.101699 0
64.9996 0.426848 0
72.9171 1.84568 0
75.4014 1.45401 0
74.7546 -1.48941 0
75.1561 -3.0547 0
68.1795 1.60918 0
67.8636 1.00563 0
67.811 -0.0123205 0
67.9442 0.0981977 0
70.2392 4.44658 0
68.6903 2.82807 0
69.5782 -2.61559 0
68.8995 -5.1678 0
67.9098 0.704823 0
67.9396 0.449492 0
75.0239 0.284947 0
74.4787 0.436043 0
75.9738 -1.448 0
75.6144 -0.210976 0
75.0715 0.188987 0
74.7069 0.0836592 0
75.1093 0.155202 0
74.8386 1.20437 0
76.5474 -0.0151586 0
76.4985 0.411453 0
77.0877 0.353111 0
78.1702 0.599367 0
67.9188 0.252367 0
67.632 -0.93811 0