# vtk DataFile Version 3.0
Unstructured Grid for Triangles
ASCII
DATASET UNSTRUCTURED_GRID
POINTS 29612 DOUBLE
-0.000272397 1.23686e-05 0
-0.000295789 9.5838e-06 0
-0.000277865 -3.1235e-06 0
0.002024 0.0005 0
0.00203975 0.00049875 0
0.00205 0.0005 0
0.00203975 -0.00049875 0
0.002024 -0.0005 0
0.00205 -0.0005 0
0.0020295 0.0004975 0
0.0020295 -0.0004975 0
0.00201925 0.00049625 0
0.00201925 -0.00049625 0
-0.000529747 -0.000479887 0
-0.00055 -0.0005 0
-0.000524 -0.0005 0
-0.000505983 -0.000484325 0
-0.000498 -0.0005 0
-0.000472 -0.0005 0
-0.000483864 -0.000487761 0
-0.000446 -0.0005 0
-0.000459 -0.000484239 0
-0.000429453 -0.000424878 0
-0.000447486 -0.000420717 0
-0.000441829 -0.000436609 0
-0.000512578 -0.000462101 0
-0.000493078 -0.000453594 0
-0.00050706 -0.000439006 0
-0.000419243 -0.000477545 0
-0.000440307 -0.000471837 0
-0.00043691 -0.000486724 0
-0.000516129 -0.000420948 0
-0.000495355 -0.000415432 0
-0.000511646 -0.00040128 0
-0.000394697 -0.000481197 0
-0.000406302 -0.000455143 0
-0.000537257 -0.000388197 0
-0.000531099 -0.000407297 0
-0.000523982 -0.000388328 0
-0.000370063 -0.000472956 0
-0.000368 -0.0005 0
-0.00035308 -0.000485302 0
-0.0005072 -0.00037867 0
-0.000485506 -0.000383975 0
-0.000490949 -0.000359622 0
-0.000337127 -0.000484331 0
-0.000316 -0.0005 0
-0.000326495 -0.00047415 0
-0.00055 -0.00035 0
-0.000531201 -0.000370361 0
-0.000528367 -0.000346817 0
-0.000363898 -0.000448809 0
-0.000383315 -0.000460336 0
-3.26269e-05 -0.000415503 0
-5.99662e-05 -0.000409556 0
-5.46944e-05 -0.000429488 0
-0.000529747 0.000479887 0
-0.00055 0.0005 0
-0.00055 0.000475 0
-0.00055 0.00045 0
-0.000534834 0.000429171 0
-0.000526943 0.000442611 0
-0.000534026 0.000460176 0
-0.000531099 0.000407297 0
-0.000511672 0.000401178 0
-0.000516129 0.000420948 0
-0.000524 0.0005 0
-0.000505983 0.000484325 0
-0.000531201 0.000370361 0
-0.0005072 0.00037867 0
-0.000523982 0.000388328 0
-0.00048341 0.000469132 0
-0.000483679 0.000487539 0
-0.000528367 0.000346817 0
-0.00055 0.000325 0
-0.000525657 0.000328474 0
-0.000498 0.0005 0
-0.000530382 0.0003125 0
-0.000419243 0.000477545 0
-0.000440015 0.00047335 0
-0.000425917 0.000463678 0
-0.000435138 0.000262661 0
-0.000414982 0.000274462 0
-0.000435654 0.000285217 0
-0.000459 0.000484239 0
-0.000436852 0.000487027 0
-0.000446 0.0005 0
-0.000533308 0.000292503 0
-0.00055 0.000275 0
-0.000523377 0.000276953 0
-0.000425282 0.000446352 0
-0.000409368 0.000435728 0
-0.000406302 0.000455143 0
0.002009 0.000495 0
0.001998 0.0005 0
0.00199875 0.00049375 0
0.0019885 0.0004925 0
0.001972 0.0005 0
0.00197825 0.00049125 0
0.001968 0.00049 0
0.00195775 0.00048875 0
0.001946 0.0005 0
0.0019475 0.0004875 0
0.00193725 0.00048625 0
0.00192 0.0005 0
0.001927 0.000485 0
0.00191675 0.00048375 0
0.0019065 0.0004825 0
0.001894 0.0005 0
0.00189625 0.00048125 0
0.001886 0.00048 0
0.001868 0.0005 0
0.00187575 0.00047875 0
0.0018655 0.0004775 0
0.00185515 0.00048575 0
0.001842 0.0005 0
0.001845 0.000475 0
0.00185525 0.00047625 0
0.00182564 0.0004829 0
0.001816 0.0005 0
0.0018245 0.0004725 0
0.00183475 0.00047375 0
0.00181425 0.00047125 0
0.00180295 0.000482657 0
0.00179 0.0005 0
0.00179375 0.00046875 0
0.001804 0.00047 0
0.00178168 0.000480619 0
0.001764 0.0005 0
0.00177325 0.00046625 0
0.0017835 0.0004675 0
0.00176428 0.000476631 0
0.001763 0.000465 0
0.001738 0.0005 0
0.001751 0.000484164 0
0.00175275 0.00046375 0
0.00174025 0.000475632 0
0.001712 0.0005 0
0.00172615 0.000478449 0
0.001722 0.00046 0
0.00173225 0.00046125 0
0.0017015 0.0004575 0
0.00171243 0.00047381 0
0.00169554 0.000479999 0
0.001686 0.0005 0
0.00167507 0.000479751 0
0.00168498 0.000464861 0
0.00166 0.0005 0
0.0016558 0.000471459 0
0.00167135 0.000462887 0
0.001681 0.000455 0
0.0016605 0.0004525 0
0.00167075 0.00045375 0
0.00164059 0.000461599 0
0.0016394 0.000479551 0
0.00162881 0.00046615 0
0.00162975 0.00044875 0
0.00165025 0.00045125 0
0.00164 0.00045 0
0.00161754 0.000458641 0
0.00161722 0.000478101 0
0.00159956 0.000458294 0
0.00160925 0.00044625 0
0.0016195 0.0004475 0
0.00157667 0.000460322 0
0.00158875 0.00044375 0
0.00159194 0.000480155 0
0.001599 0.000445 0
0.0015785 0.0004425 0
0.00155808 0.000456757 0
0.00155647 0.000476701 0
0.00154059 0.000466642 0
0.00153756 0.000450083 0
0.00154839 0.000450446 0
0.00156825 0.00044125 0
0.00151954 0.000480508 0
0.00154052 0.00048477 0
0.00153 0.0005 0
0.00154775 0.00043875 0
0.00152142 0.000456625 0
0.00152821 0.000445753 0
0.0015375 0.0004375 0
0.001504 0.0005 0
0.00149644 0.000485168 0
0.00151787 0.000443178 0
0.00152725 0.00043625 0
0.00150675 0.00043375 0
0.001517 0.000435 0
0.00148119 0.000450887 0
0.00148072 0.000475756 0
0.00146584 0.000463516 0
0.00150008 0.00046396 0
0.00149351 0.00044543 0
0.0015061 0.000446252 0
0.001476 0.00043 0
0.00148625 0.00043125 0
0.00146492 0.000482975 0
0.00144888 0.000473562 0
0.00146676 0.000444259 0
0.00145255 0.000453656 0
0.00145652 0.000438669 0
0.00141401 0.000479821 0
0.001426 0.0005 0
0.0014 0.0005 0
0.00144374 0.000438862 0
0.0014555 0.0004275 0
0.001435 0.000425 0
0.00144525 0.00042625 0
0.00142746 0.000438121 0
0.00141288 0.000443191 0
0.00141707 0.000432778 0
0.0013921 0.000438992 0
0.00140355 0.00045932 0
0.00138302 0.00045922 0
0.00142912 0.000458869 0
0.00140592 0.000430037 0
0.0014145 0.0004225 0
0.00136458 0.00045869 0
0.00137106 0.00044063 0
0.001394 0.00042 0
0.00138259 0.000428915 0
0.00137484 0.000477094 0
0.00139166 0.000478902 0
0.0013586 0.000478984 0
0.00133449 0.000478649 0
0.00134717 0.000461848 0
0.00137256 0.000425134 0
0.00135323 0.000424541 0
0.00136325 0.00041625 0
0.00136122 0.00042876 0
0.00131206 0.000447284 0
0.00133168 0.000456738 0
0.00131773 0.000465243 0
0.00134756 0.000440343 0
0.00132747 0.000436463 0
0.00133483 0.000426786 0
0.00131081 0.00041867 0
0.00132382 0.000422815 0
0.00131507 0.00043122 0
0.00131059 0.000480123 0
0.0013325 0.0004125 0
0.0012915 0.0004075 0
0.0012982 0.000418199 0
0.00128915 0.000426216 0
0.00126366 0.000447574 0
0.00127331 0.000430908 0
0.00128781 0.000444872 0
0.00125336 0.000428376 0
0.00130218 0.000431077 0
0.00127894 0.000416344 0
0.00124774 0.000469608 0
0.00127668 0.000464148 0
0.00126591 0.00048331 0
0.00126722 0.000418415 0
0.00125768 0.000411931 0
0.00124326 0.000413546 0
0.0012505 0.0004025 0
0.00122408 0.000450118 0
0.00120276 0.000447432 0
0.0012139 0.000432235 0
0.00124336 0.000444132 0
0.00123056 0.000427595 0
0.00122977 0.000409049 0
0.0012185 0.000469217 0
0.00122676 0.000485947 0
0.00120525 0.000486094 0
0.00121479 0.000413153 0
0.00119547 0.000424221 0
0.00120249 0.000407448 0
0.00119925 0.00039625 0
0.00119346 0.000406114 0
0.00117479 0.000447279 0
0.00114726 0.000445259 0
0.0011571 0.000427814 0
0.00119443 0.000466611 0
0.00117447 0.000421596 0
0.00118421 0.00040752 0
0.00117409 0.000404437 0
0.00116775 0.000470073 0
0.001179 0.0004855 0
0.00115473 0.000484802 0
0.0011685 0.0003925 0
0.00117875 0.00039375 0
0.00115454 0.000400551 0
0.001148 0.00039 0
0.00115825 0.00039125 0
0.00111703 0.000423398 0
0.00113786 0.000426731 0
0.00112589 0.000443871 0
0.00113234 0.000406671 0
0.00114754 0.000413371 0
0.001106 0.000442326 0
0.00109703 0.000424261 0
0.0011275 0.0003875 0
0.00113775 0.00038875 0
0.00110211 0.000480875 0
0.00108244 0.000471951 0
0.00109312 0.000458413 0
0.00111755 0.000399116 0
0.0010944 0.000392972 0
0.00110415 0.000405876 0
0.00108839 0.000407536 0
0.00106472 0.000476905 0
0.00107274 0.000457868 0
0.00108011 0.000392415 0
0.00106885 0.000404365 0
0.00106625 0.000388708 0
0.00105286 0.000419254 0
0.00105055 0.000395469 0
0.00104215 0.000439764 0
0.00106346 0.000440629 0
0.00100945 0.000451249 0
0.00102825 0.00045614 0
0.00101189 0.000468452 0
0.00107625 0.00038125 0
0.00105575 0.00037875 0
0.001066 0.00038 0
0.00103352 0.000476905 0
0.00101803 0.00048465 0
0.00103685 0.000389398 0
0.0010245 0.00038825 0
0.00103525 0.00037625 0
0.00101092 0.000399779 0
0.00101267 0.000382619 0
0.00101382 0.00042025 0
0.00103187 0.000405286 0
0.00103359 0.000424605 0
0.000987383 0.00045447 0
0.000999411 0.000435161 0
0.0009744 0.000433145 0
0.0010045 0.0003725 0
0.00101475 0.00037375 0
0.000970845 0.000465215 0
0.000952614 0.000467664 0
0.000961768 0.000449944 0
0.00099729 0.000387704 0
0.000978901 0.00039598 0
0.000985823 0.000381492 0
0.000962289 0.000393709 0
0.000974259 0.000381279 0
0.00097375 0.00036875 0
0.000963045 0.000376631 0
0.000958 0.0005 0
0.000932 0.0005 0
0.000947542 0.00048457 0
0.000949675 0.000385245 0
0.000936214 0.000389472 0
0.000940006 0.000374906 0
0.000966411 0.000412573 0
0.000944241 0.000407079 0
0.000903569 0.000424993 0
0.000921701 0.000402409 0
0.000927439 0.000427744 0
0.000889795 0.000409067 0
0.000903071 0.00040248 0
0.000925447 0.000377721 0
0.00093275 0.00036375 0
0.000907708 0.000387127 0
0.000911303 0.000370839 0
0.000911933 0.000455145 0
0.000930678 0.000473279 0
0.000911886 0.000482603 0
0.000887724 0.000388076 0
0.000899595 0.000375116 0
0.000902 0.00036 0
0.000889241 0.00036954 0
0.000836977 0.000459472 0
0.000836223 0.000483578 0
0.000820467 0.000474142 0
0.000871227 0.000403557 0
0.000861 0.000355 0
0.000868368 0.000365714 0
0.00085484 0.00036588 0
0.000847735 0.000402845 0
0.000823121 0.000421599 0
0.000826582 0.000398147 0
0.000846943 0.00042454 0
0.000838832 0.000378613 0
0.000835569 0.000363808 0
0.000844098 0.00036291 0
0.00085075 0.00035375 0
0.000851465 0.000477164 0
0.00083025 0.00035125 0
0.000822824 0.000368659 0
0.00081446 0.000357362 0
0.000805884 0.000371794 0
0.000753471 0.000477524 0
0.000738313 0.000473927 0
0.000739102 0.000461526 0
0.00079826 0.000358588 0
0.000788607 0.000376287 0
0.000781733 0.000357987 0
0.000816783 0.000384471 0
0.000807975 0.000404095 0
0.000752138 0.000404775 0
0.000767682 0.000417043 0
0.000749617 0.000421803 0
0.000752903 0.000384008 0
0.000738293 0.000393136 0
0.000772614 0.000394048 0
0.00076863 0.000371878 0
0.000765995 0.000354121 0
0.000779 0.000345 0
0.00071811 0.000453059 0
0.000738069 0.000437967 0
0.000752085 0.000365972 0
0.000728123 0.000374583 0
0.000741845 0.000354664 0
[...]
CELL_DATA 58684
VECTORS velocity DOUBLE
64.479 0.572545 0
70.6431 0.000162698 0
71.0272 -0.000228983 0
70.6856 -0.00409597 0
71.0306 0.000655183 0
70.7089 -0.0141007 0
71.0334 0.00164411 0
67.7317 -0.00843486 0
67.706 -0.00783705 0
67.6472 -0.00732069 0
67.6411 -0.009358 0
67.6278 -0.287573 0
67.6656 -0.0689072 0
67.6729 -0.0892119 0
67.6649 -0.1089 0
67.7473 -0.12231 0
67.7253 -0.0467537 0
67.8808 -0.100502 0
67.6287 -0.198175 0
68.1498 -0.0711146 0
67.7402 -0.0441706 0
67.8744 -0.234114 0
72.0654 -1.43075 0
67.7646 0.0028502 0
67.7268 0.03419 0
67.7669 0.013976 0
67.6736 0.0792233 0
67.6877 0.00861247 0
67.6912 0.109587 0
67.6237 0.0362821 0
67.7293 0.0821057 0
67.629 0.0181767 0
67.6803 0.093854 0
67.6826 0.138143 0
67.426 0.960762 0
67.6149 0.0523556 0
67.7477 0.104059 0
67.6895 0.290651 0
70.7252 -0.00747937 0
70.7543 -0.000111093 0
70.8085 -0.0268989 0
70.8135 -0.0211345 0
70.8483 -0.00022216 0
70.9128 -0.0305849 0
70.9213 -0.0422296 0
70.9315 -0.0278433 0
70.9715 -0.000961964 0
71.0277 -0.0553169 0
71.0304 -0.045102 0
71.0688 -0.00234718 0
71.1484 -0.0655779 0
71.1523 -0.0705071 0
71.1631 -0.0429931 0
71.2025 -0.00434611 0
71.2615 -0.0829621 0
71.2605 -0.0614313 0
71.2984 -0.00742503 0
71.3927 -0.110073 0
71.392 -0.10036 0
71.4025 -0.0578286 0
71.4601 -0.00257117 0
71.5 -0.120083 0
71.5359 -0.0774637 0
71.6103 -0.00540135 0
71.6474 -0.132995 0
71.653 -0.122837 0
71.6948 -0.0901439 0
71.7267 -0.00488838 0
71.7507 -0.127195 0
71.7876 -0.0857432 0
71.8241 -0.00568002 0
71.8513 -0.130118 0
71.8797 -0.0948295 0
71.9297 -0.149392 0
71.9397 -0.00337791 0
71.9699 -0.0943666 0
71.9922 -0.0637133 0
72.0255 -0.00609455 0
72.0523 -0.112863 0
72.1197 -0.0699658 0
72.0628 -0.0862954 0
72.1076 -0.00427559 0
72.1298 -0.0437273 0
72.125 -0.0835806 0
72.1788 -0.0378848 0
72.1701 -0.0470433 0
72.1806 -0.0721645 0
72.2021 -0.0756363 0
72.216 -0.0287728 0
72.2296 -0.0347523 0
72.2095 -0.0457283 0
72.2234 -0.0445593 0
72.2241 -0.0203667 0
72.2278 -0.0272329 0
72.2355 -0.0261184 0
72.2288 -0.00900397 0
72.2198 -0.00897458 0
72.2342 -0.0124458 0
72.2264 -0.00485412 0
72.2135 -0.00325098 0
72.2113 -0.0111227 0
72.2202 -0.00500037 0
72.2033 -0.00804034 0
72.2129 -0.00848118 0
72.2051 -0.0141945 0
72.2112 -0.0152622 0
72.2053 -0.00948775 0
72.2091 -0.0230947 0
72.2095 -0.0380202 0
72.22 -0.0577764 0
72.22 -0.0440627 0
72.2097 -0.0494077 0
72.2199 -0.0949656 0
72.2373 -0.0650242 0
72.2671 -0.117795 0
72.263 -0.084904 0
72.3657 -0.00541716 0
72.2342 -0.150988 0
72.2649 -0.210008 0
72.3523 -0.222996 0
72.473 -0.230363 0
72.3825 -0.150642 0
72.355 -0.292354 0
72.5912 -0.258951 0
72.4663 -0.383673 0
72.5377 -0.141679 0
72.5117 -0.348347 0
72.7891 -0.147387 0
72.5959 -0.429016 0
72.707 -0.576067 0
73.1173 -0.361736 0
72.9001 -0.516368 0
72.9359 -0.241166 0
73.1126 -0.704467 0
73.0213 -0.184625 0
72.9288 -0.695972 0
73.3609 -0.829954 0
73.6367 -0.572068 0
73.7546 -0.734328 0
73.433 -0.698199 0
73.4974 -0.75537 0
73.5604 -0.355899 0
73.8101 -0.900261 0
73.9749 -0.970601 0
74.3849 -0.582528 0
73.8815 -0.466598 0
73.946 -0.81857 0
74.1123 -0.982337 0
74.1145 -0.165395 0
74.6419 -0.966272 0
74.6917 -1.01572 0
75.0319 -0.433341 0
74.5773 -0.527013 0
74.82 -0.77179 0
74.9672 -0.939456 0
74.7217 -0.121684 0
75.0517 -1.05854 0
75.3355 -0.948826 0
75.3953 -0.473678 0
75.4454 -0.636054 0
75.5782 -0.311653 0
75.5699 -0.765771 0
75.4438 -0.0664247 0
75.6313 -0.64059 0
75.9494 -0.329287 0
75.5521 -0.022793 0
76.0546 -0.121917 0
76.052 0.0402054 0
75.8896 0.107899 0
75.5884 0.195125 0
76.128 -0.115126 0
76.1881 0.00776236 0
75.5916 0.0904029 0
76.1786 0.436266 0
76.0718 0.583871 0
76.0628 0.391915 0
75.5802 0.29742 0
75.498 0.456343 0
76.1108 0.763191 0
75.3545 0.328574 0
75.9119 0.888469 0
75.8276 1.01993 0
75.8009 1.22667 0
75.2187 0.0126454 0
75.407 1.24586 0
75.7095 0.930166 0
75.1656 0.790586 0
74.9703 0.876964 0
75.3116 1.41952 0
75.0361 1.38131 0
74.9632 0.256027 0
74.9147 1.24035 0
74.8558 1.48557 0
74.7703 1.38594 0
74.3966 0.156857 0
74.7573 0.967309 0
74.2448 1.277 0
74.2574 0.672982 0
74.3828 0.582861 0
74.1882 1.06288 0
74.124 1.20629 0
74.3944 0.164637 0
73.9562 0.932334 0
73.8672 0.776177 0
74.1862 0.00689191 0
73.8571 0.431395 0
74.075 0.577316 0
74.0479 0.0495735 0
74.0089 -0.100653 0
73.9163 0.248617 0
73.6842 0.232486 0
74.1781 -0.066451 0
73.7724 -0.169379 0
73.7229 -0.107495 0
73.8845 -0.504242 0
74.3249 -0.00605332 0
74.061 -0.414682 0
73.9118 -0.657635 0
74.2432 -0.10202 0
73.9762 -0.785837 0
74.3835 -0.3956 0
74.0704 -0.861508 0
74.6008 -0.224076 0
74.3614 -0.811737 0
74.2776 -1.03573 0
74.5012 -0.111722 0
74.5794 -1.12734 0
74.8838 -1.04352 0
74.6607 -0.837882 0
74.7595 -0.411594 0
74.977 -1.27378 0
74.8714 -0.310448 0
74.8762 -0.0420426 0
74.7967 -0.8588 0
75.1869 -1.13501 0
75.3593 -1.26827 0
75.0071 -0.194082 0
75.3828 -0.817034 0
75.6592 -0.792372 0
74.9355 -0.0581882 0
75.6816 -0.541025 0
75.7264 -0.737988 0
75.2972 -0.507148 0
75.0995 -0.163245 0
75.2184 -0.144685 0
75.7616 -0.470259 0
74.9949 -0.00409019 0
75.7746 -0.374306 0
75.7814 -0.207858 0
75.7753 -0.245706 0
75.095 -0.0327242 0
75.5091 -0.0553679 0
75.547 0.0654044 0
74.9627 -0.00430139 0
75.5082 0.205366 0
75.3107 0.197572 0
75.3495 -0.0141343 0
75.1195 -0.0244881 0
75.3667 0.266699 0
75.1806 -0.0194969 0
74.9082 -0.00362545 0
75.3207 0.0933225 0
75.1806 0.223823 0
75.0663 0.167741 0
74.9977 -0.0235922 0
75.1323 0.00843566 0
75.0213 0.0857124 0
74.9094 -0.00527399 0
74.9798 -0.00135768 0
74.9649 -0.171055 0
75.1771 -0.120247 0
74.7668 -0.00413026 0
75.0258 -0.373991 0
75.1856 -0.0695872 0
75.3005 -0.0878825 0
75.1228 -0.348753 0
75.1767 -0.274675 0
75.2467 -0.547713 0
74.8756 0.0583069 0
75.1921 -0.60775 0
75.4606 -0.351549 0
75.5879 -0.684602 0
74.8177 0.0126429 0
75.9281 -0.326204 0
75.9128 -0.116551 0
74.2009 0.0828532 0
76.059 -0.723116 0
76.3597 -0.266709 0
75.0547 0.491968 0
74.7455 0.22886 0
75.6196 0.0748242 0
76.4941 0.104183 0
74.381 0.152598 0
76.4619 0.683301 0
76.5838 -0.0533246 0
76.6028 0.140243 0
74.0194 0.737817 0
75.7407 1.02017 0
76.6908 0.939889 0
73.972 0.12539 0
76.5402 1.31663 0
76.4444 1.47975 0
75.9798 2.69082 0
72.7052 0.221396 0
76.7382 2.26908 0
75.2219 1.70376 0
73.7357 0.852991 0
73.6976 1.72601 0
76.6154 2.62409 0
76.0898 3.24266 0
73.0805 0.368673 0
75.9994 3.72039 0
71.0364 -0.00040387 0
71.0385 -0.000287747 0
71.0418 0.00160715 0
71.0418 -0.000173664 0
71.0455 -0.000555632 0
71.0485 0.000889625 0
71.049 0.000569498 0
71.0502 -0.00150139 0
71.0522 -0.000741404 0
71.0532 -0.000291667 0
71.0534 -0.00106834 0
71.0566 -0.000862518 0
71.0579 -0.000410962 0
71.0587 -0.000486175 0
71.0596 -0.00111253 0
71.0625 -0.00085985 0
71.0651 0.00129313 0
71.0654 0.00108992 0
71.0698 -0.000387919 0
71.0772 0.00663625 0
71.0786 0.00801953 0
71.0948 0.016671 0
71.0808 0.00465832 0
71.1018 0.0140456 0
71.1201 0.0249638 0
71.1046 0.0181239 0
71.1298 0.0358781 0
71.1425 0.0280851 0
71.1671 0.0519468 0
71.1417 0.0256866 0
71.1839 0.0391816 0
71.2232 0.0769171 0
71.1899 0.0332433 0
71.2825 0.105794 0
71.2862 0.106551 0
71.3113 0.0787217 0
71.2542 0.0508678 0
71.3179 0.0951917 0
71.3905 0.093773 0
71.3448 0.0642003 0
71.4774 0.199893 0
71.4641 0.0893911 0
71.5234 0.133159 0
71.4575 0.106358 0
71.5441 0.196268 0
71.6926 0.235043 0
71.7598 0.143598 0
71.6686 0.224125 0
71.8222 0.268512 0
71.8356 0.31079 0
71.9945 0.167927 0
71.932 0.223508 0
72.051 0.296233 0
72.1748 0.437464 0
72.2061 0.210697 0
72.2506 0.332595 0
72.3515 0.468323 0
72.4302 0.286025 0
72.2684 0.346395 0
72.525 0.521292 0
72.5264 0.508428 0
72.5826 0.312479 0
72.7261 0.210439 0
72.7904 0.460352 0
72.347 0.154138 0
72.9022 0.530187 0
73.1679 0.590504 0
73.0371 0.513404 0
72.9293 0.309482 0
73.2466 0.588389 0
73.3056 0.506645 0
73.4133 0.2088 0
73.1663 0.48538 0
73.4392 0.488149 0
73.5435 0.506507 0
73.257 0.148198 0
73.4717 0.369777 0
73.7574 0.5095 0
73.547 0.292336 0
73.8144 0.42784 0
73.9403 0.384666 0
73.7929 0.319218 0
73.8638 0.102737 0
73.9659 0.296845 0
74.0731 0.35344 0
73.8742 0.0752946 0
74.1125 0.272151 0
73.9381 0.219187 0
74.172 0.148895 0
73.9909 0.157188 0
74.1786 0.162699 0
74.2254 -0.0108383 0
74.0128 0.0123389 0
74.0943 0.0586774 0
74.2172 -0.0743771 0
74.1352 -0.0817211 0
74.0346 0.000241977 0
74.2131 -0.145021 0
74.1881 -0.241223 0
73.9688 -0.0575513 0
73.9996 -0.121798 0
74.1092 -0.274525 0
74.1208 -0.36583 0
74.022 -0.144733 0
74.0624 -0.388514 0
74.0156 -0.454064 0
73.8139 -0.138693 0
73.9318 -0.250239 0
73.8975 -0.522527 0
73.865 -0.427631 0
73.8549 -0.120439 0
73.846 -0.479675 0
73.7647 -0.475595 0
73.7378 -0.15713 0
73.777 -0.407063 0
73.6532 -0.510221 0
73.6493 -0.331161 0
73.7446 -0.126302 0
73.611 -0.40231 0
73.5751 -0.312602 0
73.6814 -0.106797 0
73.5977 -0.169743 0
73.7339 -0.0725464 0
73.6093 -0.0749389 0
73.7262 -0.10441 0
73.573 -0.155258 0
73.6141 0.0633564 0
73.7798 0.0148861 0
73.6261 0.0719223 0
73.7437 0.280545 0
73.9863 0.0885718 0
73.6442 0.021338 0
73.7838 0.300743 0
73.8374 0.410436 0
73.9492 0.0496633 0
73.8911 0.430109 0
74.1608 0.720366 0
74.1594 0.609408 0
74.2758 0.166045 0
74.4123 0.695139 0
74.1457 0.185541 0
73.9559 0.418064 0
74.3453 0.760035 0
74.6821 0.923699 0
74.7072 0.951909 0
74.2186 0.00180738 0
75.0566 1.09179 0
75.094 1.01641 0
75.169 0.751075 0
75.0638 0.295168 0
75.2827 0.250498 0
75.241 0.918111 0
74.7014 0.227373 0
75.6294 0.848161 0
75.558 0.835226 0
75.536 0.605201 0
75.1812 0.130675 0
75.7982 0.517015 0
76.0855 0.542826 0
75.4407 0.0805694 0
75.4607 0.185643 0
75.8346 0.292733 0
76.2466 0.133622 0
75.2855 0.151822 0
76.2026 0.0857935 0
76.2394 -0.129109 0
75.4185 -0.0431507 0
76.1204 -0.549013 0
76.1225 -0.565257 0
75.7838 -0.653029 0
75.4701 -0.203815 0
75.6201 -0.169913 0
76.0577 -0.660147 0
75.4994 -0.0618275 0
75.8701 -1.01933 0
75.7893 -1.00857 0
75.6087 -1.0054 0
75.3079 -0.103447 0
75.3801 -1.27262 0
75.352 -1.35178 0
75.3326 -0.55767 0
74.9491 -0.864394 0
75.1379 -0.43874 0
75.1534 -1.23212 0
75.1856 -0.23714 0
74.7976 -1.42681 0
74.7364 -1.30214 0
75.0707 -0.20564 0
74.5845 -0.97656 0
74.1661 -0.962038 0
74.3933 -1.06426 0
74.59 -0.141814 0
73.8316 -0.666988 0
73.8039 -0.65089 0
74.694 -0.659237 0
74.2641 -0.250822 0
74.5784 -0.279993 0
73.7119 -0.280052 0
74.4987 -0.0242526 0
73.6994 0.0422472 0
73.8253 0.219152 0
74.5939 -0.0434777 0
74.0066 0.244393 0
73.812 0.777713 0
73.9054 0.960242 0
74.4794 0.169079 0
73.9911 1.149 0
74.1148 1.37868 0
74.1599 0.195604 0
74.5446 0.993138 0
74.5858 0.245281 0
74.3675 1.63563 0
74.662 0.0977844 0
74.5813 1.74024 0
74.7664 1.8101 0
74.5729 0.0448436 0
74.7946 1.523 0
75.2884 2.01206 0
75.6368 1.96995 0
74.836 0.301914 0
75.4191 1.86146 0
75.888 2.04963 0
74.995 1.29596 0
75.9774 1.20562 0
75.0014 0.261773 0
75.6419 1.80755 0
75.1224 0.11159 0
76.348 1.94893 0
76.4797 1.67268 0
74.98 0.0812177 0
76.2538 1.17254 0
76.7128 1.28139 0
76.9737 1.0767 0
75.3751 0.0698797 0
77.0654 0.808672 0
77.1393 0.658104 0
75.5747 0.0712134 0
77.1234 0.617779 0
76.4952 0.0562049 0
75.6523 0.32571 0
75.4257 0.278362 0
77.1635 0.280771 0
77.0607 -0.130554 0
77.2854 -0.311651 0
75.2764 0.00793431 0
76.8407 -0.539198 0
77.1748 -0.901225 0
75.3716 -0.00868271 0
76.7202 -0.531884 0
77.1167 -1.29918 0
76.3055 -0.92443 0
75.443 -0.275424 0
77.0109 -1.51485 0
76.905 -1.75166 0
76.229 -0.437147 0
75.871 -1.90199 0
74.5454 -1.63264 0
76.8488 -1.77748 0
74.6578 -0.218219 0
76.6894 -2.3894 0
75.4726 4.26832 0
75.9338 3.67536 0
72.0497 1.24332 0
75.4343 4.2813 0
73.9205 4.17507 0
74.8992 4.79541 0
72.3807 0.477321 0
74.3205 5.03448 0
73.5891 5.11476 0
71.5517 0.653125 0
73.5937 5.37092 0
76.6441 -2.65557 0
74.8338 -0.132852 0
76.5091 -2.8748 0
75.8185 -3.20545 0
75.3566 -2.77935 0
74.3022 -0.171661 0
75.925 -3.58603 0
72.7863 5.10532 0
75.4437 -4.37664 0
74.191 -0.879063 0
75.2833 -4.25266 0
74.61 -4.89403 0
70.8298 1.61189 0
74.4007 -4.83115 0
75.213 -2.63042 0
74.8598 -4.36912 0
73.5297 -3.28289 0
72.7636 -0.554373 0
74.2285 -4.46501 0
73.7274 -4.75264 0
72.3706 5.38114 0
73.7555 -4.79558 0
73.3691 -0.286799 0
73.084 -5.0444 0
72.652 -5.48314 0
72.3277 -0.364157 0
71.9421 -5.61115 0
72.2701 -4.14002 0
70.8341 -0.439348 0
71.3155 -5.69883 0
71.2195 -3.23973 0
72.3128 -2.52002 0
71.714 -4.92739 0
70.9092 -5.18978 0
72.792 2.76803 0
70.2027 0.371811 0
72.2418 1.90022 0
71.2576 -0.0371775 0
70.6019 -5.55846 0
72.1935 5.14653 0
70.0634 0.269486 0
71.6104 4.44699 0
70.0099 -5.52679 0
70.9363 -1.1678 0
69.4012 -4.02808 0
71.7263 5.83399 0
69.296 1.51932 0
71.6989 5.77834 0
70.055 5.09572 0
69.4668 0.302518 0
70.6653 5.25447 0
69.7841 -4.19913 0
70.6303 -0.347764 0
69.4209 -5.64241 0
69.4624 -5.46197 0
70.883 5.60317 0
69.5049 5.52082 0
69.0043 0.0242333 0
70.2643 5.61746 0
68.692 3.70038 0
69.0233 1.7383 0
68.7549 -5.59321 0
69.2069 -0.754232 0
69.0048 -5.50129 0
68.6501 5.80765 0
68.3009 -5.16476 0
68.6194 -0.729575 0
68.3865 -2.27883 0
67.5208 -4.93383 0
69.3984 -2.73141 0
67.3626 -4.75015 0
68.3226 -0.194429 0
66.7219 -4.55538 0
68.134 2.18906 0
68.5278 0.341429 0
68.3135 4.9908 0
68.1744 0.0841091 0
68.1639 5.75049 0
68.0093 5.48947 0
67.9705 0.144621 0
67.4089 4.88425 0
67.8817 0.108658 0
67.6051 -4.27925 0
68.3232 -0.373631 0
68.6236 4.32209 0
67.4963 0.622763 0
67.1914 4.65547 0
66.6464 -4.55698 0
68.4238 -0.162454 0
65.4621 -3.80319 0
67.614 -0.268958 0
65.9596 -3.81719 0
67.635 1.97544 0
67.7617 0.0790594 0
68.0661 -3.47721 0
67.7639 -0.0568 0
65.53 -3.56963 0
66.6852 4.26921 0
66.5142 -2.7677 0
67.7054 -0.114265 0
65.7153 -3.0382 0
67.2206 2.43208 0
65.6346 1.69645 0
66.2804 3.75346 0
67.1841 -0.626882 0
65.6653 -3.36098 0
67.5546 0.321313 0
66.3009 4.86596 0
66.9863 -1.46388 0
67.7693 -0.0421961 0
65.414 -3.03788 0
66.1653 4.465 0
67.463 0.623995 0
65.9576 3.61025 0
65.8167 3.55528 0
67.5604 0.315264 0
65.2378 3.2165 0
64.8379 -2.64662 0
67.6401 -0.164987 0
64.5863 -2.65504 0
66.1958 -1.11225 0
67.7007 -0.099464 0
64.2624 -1.71568 0
65.2552 3.92413 0
67.3818 0.560142 0
66.0545 2.62351 0
64.6157 -1.49106 0
67.4715 -0.184031 0
64.1491 -1.37 0
64.398 2.97662 0
67.4792 0.23885 0
64.6418 2.846 0
64.8477 2.37671 0
67.7583 0.0277693 0
64.3143 2.51837 0
64.9881 -0.751776 0
67.3279 -0.317828 0
64.4685 -0.640151 0
63.6715 -0.281604 0
66.6004 -0.423802 0
63.8404 -0.182797 0
66.3677 0.941061 0
67.5737 0.0993166 0
65.7704 2.03302 0
64.2273 2.06776 0
67.3291 0.121828 0
63.7905 1.4694 0
66.9529 -0.018083 0
67.7171 -0.0690636 0
63.7368 0.176251 0
64.0605 0.297572 0
67.6115 -0.0143589 0
65.637 0.513531 0
64.3263 0.724992 0
67.6633 -0.0253714 0
66.6406 -3.75808 0
67.6193 -0.275757 0
67.7166 0.0854368 0
67.556 5.02942 0
67.9216 -5.14171 0
69.8567 -0.656962 0
68.8662 0.748825 0
70.0987 5.90484 0
67.5608 0.240207 0
64.9056 3.77234 0
64.3476 -1.72162 0
67.6732 -0.130421 0
67.5241 -0.381733 0
66.8291 -2.35225 0
67.4468 0.699457 0
67.7495 0.12356 0
67.5831 0.0414707 0
64.1489 1.83954 0
68.1219 0.351562 0
67.5392 1.21851 0
67.7527 -0.851109 0
68.6612 -0.481315 0
72.348 -0.817323 0
72.2945 -5.47382 0
73.8375 5.08869 0
72.1308 0.282732 0
67.0925 1.34797 0
68.6278 5.60791 0
67.5903 -4.70545 0
67.9913 -1.52302 0
66.4186 -0.811429 0
64.8442 0.171762 0
66.2113 4.40011 0
67.2967 1.4816 0
67.193 -1.08984 0
64.9015 -3.0333 0
76.3416 -3.25415 0
74.0883 -0.424353 0
73.682 0.409966 0
76.6606 1.82434 0
67.4752 -0.579688 0
67.7364 -0.0162607 0
67.6762 0.0955059 0
67.9311 0.570467 0
70.6439 0.488621 0
70.5446 2.80982 0
69.296 -1.35424 0
71.3612 -1.16284 0
69.846 3.44876 0
72.0059 5.4599 0
71.0055 -5.66465 0
70.1849 -1.28175 0
72.8588 0.976659 0
73.8771 3.07321 0
72.6944 -1.8349 0
73.3919 -0.0159612 0
75.3695 -0.0476362 0
77.2806 -0.488468 0
75.6964 -0.778163 0
74.4703 0.0091932 0
75.1239 0.0109611 0
76.5202 1.68729 0
75.0392 -0.181971 0
74.955 -0.0166766 0
67.9476 -0.915609 0
67.6988 -0.36624 0
67.5597 0.981336 0
68.0659 0.719418 0
67.4835 0.997502 0
67.693 0.134041 0
67.7633 -0.057528 0
67.4827 -0.747913 0
74.419 0.440229 0
75.2662 0.685388 0
74.9643 -0.641042 0
75.0014 -0.0744228 0
65.6905 -0.425898 0
67.6226 -0.0720551 0
67.0194 -0.221766 0
67.6012 -0.208181 0
67.6813 0.147547 0
67.3223 0.85047 0
74.8935 1.87332 0
74.741 0.184378 0
74.9481 -0.00566666 0
75.5497 0.104573 0
69.6256 -0.0165595 0
69.1243 -1.91838 0
69.9014 1.28146 0
69.0039 0.336956 0
67.1183 3.12665 0
66.9093 5.29368 0
66.608 -4.14666 0
67.3606 -2.08171 0
67.7223 -1.33596 0
66.8379 -1.36458 0
67.2035 3.51359 0
67.3505 1.71852 0
74.9452 -0.0217557 0
74.8329 0.0193746 0
75.3693 0.0505773 0
76.1374 0.819592 0
68.3633 -3.57015 0
69.0971 -3.47187 0
68.9676 3.34741 0
69.5519 5.9163 0
67.8681 -2.64933 0
68.6816 -1.57162 0
68.613 2.32357 0
68.0937 1.18047 0
73.8145 0.589044 0
74.4744 0.0426421 0
74.9812 -0.00664762 0
75.5622 -0.889502 0
66.7857 0.912147 0
67.6939 0.0413266 0
74.9832 -0.00802598 0
75.1802 -0.0270422 0
75.3576 0.608473 0
74.8577 0.0784094 0
67.8555 -0.595048 0
67.5558 -0.842082 0
68.0321 1.33981 0
67.5825 0.628736 0
67.7372 -0.0707391 0
67.5998 -0.48807 0
67.6 0.232605 0
67.7126 0.0775286 0
64.4257 1.57535 0
66.4607 1.32087 0
73.2397 -2.0563 0
75.5186 -4.02529 0
76.3559 3.04141 0
73.0554 1.3703 0
66.3379 -1.36125 0
64.8287 -1.76131 0
74.7997 -0.14138 0
74.5911 -1.15364 0
75.3831 -0.0577708 0
75.4737 -1.37559 0
74.7616 -1.10577 0
74.6131 -0.109926 0
73.7637 -0.341045 0
74.2507 -0.00621507 0
75.0686 -0.0469974 0
75.3998 -0.131604 0
74.515 0.352004 0
74.5461 0.00644134 0
67.6686 0.145004 0
67.2368 0.504135 0
66.0696 0.593219 0
64.575 0.939882 0
67.4781 -0.105307 0
67.6767 -0.0982926 0
66.8888 0.383648 0
66.7957 -0.340202 0
76.9461 -1.55281 0
74.9429 -1.04805 0
75.4204 0.865686 0
76.355 -0.406278 0
67.6384 -0.0424665 0
67.6201 -0.264789 0
67.7073 0.0212251 0
67.6607 0.216274 0
74.8775 -0.143015 0
75.0209 -0.463081 0
74.4588 -0.0479976 0
74.6765 -0.0854093 0
75.4904 0.0385151 0
76.0349 -0.000390079 0
73.8464 0.880553 0
74.2465 0.156741 0
67.6959 -0.585431 0
68.143 -1.41909 0
67.787 1.23614 0
67.5922 0.996295 0
68.0164 2.21876 0
66.9279 1.49007 0
67.3139 -1.18836 0
67.6729 -1.82234 0
75.871 -0.0411901 0
76.5557 1.25201 0
75.0397 -0.390801 0
75.3329 -0.0456263 0
67.1126 -0.697739 0
67.1576 -0.858874 0
67.2486 0.940208 0
66.7746 1.1249 0
75.9275 0.768887 0
75.1098 0.270064 0
74.6706 0.254667 0
74.4374 1.30888 0
72.1709 2.78205 0
73.8418 4.51724 0
73.0399 -5.41096 0
72.6651 -2.18384 0
65.2188 -2.15456 0
66.7937 -2.27073 0
71.7338 -2.03252 0
72.1169 -0.742425 0
71.1199 0.332032 0
73.2357 1.85852 0
65.0913 3.61094 0
66.2857 2.21834 0
74.3867 -0.0394993 0
74.4009 -0.550624 0
75.0016 -0.416681 0
74.9682 -0.0991715 0
74.3596 -0.227569 0
74.2592 -0.946266 0
74.4378 1.00702 0
73.7441 0.15688 0
70.7226 0.990178 0
69.4985 0.262253 0
70.1639 -0.234772 0
70.597 -2.06356 0
75.2282 0.75554 0
75.0743 1.72363 0
75.1897 0.19821 0
75.1479 -0.0636424 0
69.9571 -2.53699 0
70.6727 -1.2123 0
70.2923 1.88378 0
72.2785 3.96639 0
74.6762 0.783805 0
74.5398 0.121381 0
74.9611 0.286856 0
75.7057 1.16048 0
74.1883 0.111199 0
74.216 -0.00138243 0
75.3369 -0.0640757 0
75.935 -0.0590436 0
68.5101 0.37815 0
68.3558 0.99488 0
68.4884 -0.770866 0
69.0306 -0.237411 0
69.6159 2.05491 0
68.5002 1.49108 0
67.9455 -1.89755 0
67.4244 -1.83685 0
75.3959 -0.176602 0
75.2347 -0.106117 0
74.6837 0.109883 0
75.0985 0.0869303 0
68.486 2.85133 0
68.8242 1.94099 0
68.0863 -0.536037 0
68.0189 -0.194491 0
67.9554 0.199893 0
68.3418 0.67525 0
66.1622 -0.361169 0
66.9378 -0.798296 0
76.6594 -2.20418 0
75.0463 -1.22878 0
74.7984 2.01751 0
76.7458 1.15756 0
67.4326 -0.614526 0
67.747 -0.0638295 0
67.6547 0.154506 0
67.465 0.725536 0
67.642 0.0762547 0
67.5967 0.517272 0
67.7171 -0.234358 0
67.7844 -0.0148533 0
65.4088 0.112539 0
63.7257 0.459506 0
72.052 2.10889 0
74.5912 1.5848 0
73.779 -1.62231 0
74.2205 -3.2082 0
66.9301 1.66206 0
66.6179 1.0218 0
67.7682 -0.00643702 0
67.2897 0.0584088 0
69.1649 4.82777 0
67.4427 3.12066 0
68.5407 -2.8765 0
67.9708 -5.33836 0
66.8668 0.771564 0
67.4399 0.391427 0
74.4412 0.474376 0
73.9587 1.14149 0
75.6492 -0.479208 0
75.0789 -0.0686593 0
74.6605 0.287286 0
74.3432 0.0967157 0
75.393 0.0289189 0
75.5332 0.701109 0
75.5721 -0.550455 0
75.6517 0.246053 0
76.2611 0.0826391 0
77.2134 0.0552933 0