# vtk DataFile Version 3.0
Unstructured Grid for Triangles
ASCII
DATASET UNSTRUCTURED_GRID
POINTS 29612 DOUBLE
-0.000272397 1.23686e-05 0
-0.000295789 9.5838e-06 0
-0.000277865 -3.1235e-06 0
0.002024 0.0005 0
0.00203975 0.00049875 0
0.00205 0.0005 0
0.00203975 -0.00049875 0
0.002024 -0.0005 0
0.00205 -0.0005 0
0.0020295 0.0004975 0
0.0020295 -0.0004975 0
0.00201925 0.00049625 0
0.00201925 -0.00049625 0
-0.000529747 -0.000479887 0
-0.00055 -0.0005 0
-0.000524 -0.0005 0
-0.000505983 -0.000484325 0
-0.000498 -0.0005 0
-0.000472 -0.0005 0
-0.000483864 -0.000487761 0
-0.000446 -0.0005 0
-0.000459 -0.000484239 0
-0.000429453 -0.000424878 0
-0.000447486 -0.000420717 0
-0.000441829 -0.000436609 0
-0.000512578 -0.000462101 0
-0.000493078 -0.000453594 0
-0.00050706 -0.000439006 0
-0.000419243 -0.000477545 0
-0.000440307 -0.000471837 0
-0.00043691 -0.000486724 0
-0.000516129 -0.000420948 0
-0.000495355 -0.000415432 0
-0.000511646 -0.00040128 0
-0.000394697 -0.000481197 0
-0.000406302 -0.000455143 0
-0.000537257 -0.000388197 0
-0.000531099 -0.000407297 0
-0.000523982 -0.000388328 0
-0.000370063 -0.000472956 0
-0.000368 -0.0005 0
-0.00035308 -0.000485302 0
-0.0005072 -0.00037867 0
-0.000485506 -0.000383975 0
-0.000490949 -0.000359622 0
-0.000337127 -0.000484331 0
-0.000316 -0.0005 0
-0.000326495 -0.00047415 0
-0.00055 -0.00035 0
-0.000531201 -0.000370361 0
-0.000528367 -0.000346817 0
-0.000363898 -0.000448809 0
-0.000383315 -0.000460336 0
-3.26269e-05 -0.000415503 0
-5.99662e-05 -0.000409556 0
-5.46944e-05 -0.000429488 0
-0.000529747 0.000479887 0
-0.00055 0.0005 0
-0.00055 0.000475 0
-0.00055 0.00045 0
-0.000534834 0.000429171 0
-0.000526943 0.000442611 0
-0.000534026 0.000460176 0
-0.000531099 0.000407297 0
-0.000511672 0.000401178 0
-0.000516129 0.000420948 0
-0.000524 0.0005 0
-0.000505983 0.000484325 0
-0.000531201 0.000370361 0
-0.0005072 0.00037867 0
-0.000523982 0.000388328 0
-0.00048341 0.000469132 0
-0.000483679 0.000487539 0
-0.000528367 0.000346817 0
-0.00055 0.000325 0
-0.000525657 0.000328474 0
-0.000498 0.0005 0
-0.000530382 0.0003125 0
-0.000419243 0.000477545 0
-0.000440015 0.00047335 0
-0.000425917 0.000463678 0
-0.000435138 0.000262661 0
-0.000414982 0.000274462 0
-0.000435654 0.000285217 0
-0.000459 0.000484239 0
-0.000436852 0.000487027 0
-0.000446 0.0005 0
-0.000533308 0.000292503 0
-0.00055 0.000275 0
-0.000523377 0.000276953 0
-0.000425282 0.000446352 0
-0.000409368 0.000435728 0
-0.000406302 0.000455143 0
0.002009 0.000495 0
0.001998 0.0005 0
0.00199875 0.00049375 0
0.0019885 0.0004925 0
0.001972 0.0005 0
0.00197825 0.00049125 0
0.001968 0.00049 0
0.00195775 0.00048875 0
0.001946 0.0005 0
0.0019475 0.0004875 0
0.00193725 0.00048625 0
0.00192 0.0005 0
0.001927 0.000485 0
0.00191675 0.00048375 0
0.0019065 0.0004825 0
0.001894 0.0005 0
0.00189625 0.00048125 0
0.001886 0.00048 0
0.001868 0.0005 0
0.00187575 0.00047875 0
0.0018655 0.0004775 0
0.00185515 0.00048575 0
0.001842 0.0005 0
0.001845 0.000475 0
0.00185525 0.00047625 0
0.00182564 0.0004829 0
0.001816 0.0005 0
0.0018245 0.0004725 0
0.00183475 0.00047375 0
0.00181425 0.00047125 0
0.00180295 0.000482657 0
0.00179 0.0005 0
0.00179375 0.00046875 0
0.001804 0.00047 0
0.00178168 0.000480619 0
0.001764 0.0005 0
0.00177325 0.00046625 0
0.0017835 0.0004675 0
0.00176428 0.000476631 0
0.001763 0.000465 0
0.001738 0.0005 0
0.001751 0.000484164 0
0.00175275 0.00046375 0
0.00174025 0.000475632 0
0.001712 0.0005 0
0.00172615 0.000478449 0
0.001722 0.00046 0
0.00173225 0.00046125 0
0.0017015 0.0004575 0
0.00171243 0.00047381 0
0.00169554 0.000479999 0
0.001686 0.0005 0
0.00167507 0.000479751 0
0.00168498 0.000464861 0
0.00166 0.0005 0
0.0016558 0.000471459 0
0.00167135 0.000462887 0
0.001681 0.000455 0
0.0016605 0.0004525 0
0.00167075 0.00045375 0
0.00164059 0.000461599 0
0.0016394 0.000479551 0
0.00162881 0.00046615 0
0.00162975 0.00044875 0
0.00165025 0.00045125 0
0.00164 0.00045 0
0.00161754 0.000458641 0
0.00161722 0.000478101 0
0.00159956 0.000458294 0
0.00160925 0.00044625 0
0.0016195 0.0004475 0
0.00157667 0.000460322 0
0.00158875 0.00044375 0
0.00159194 0.000480155 0
0.001599 0.000445 0
0.0015785 0.0004425 0
0.00155808 0.000456757 0
0.00155647 0.000476701 0
0.00154059 0.000466642 0
0.00153756 0.000450083 0
0.00154839 0.000450446 0
0.00156825 0.00044125 0
0.00151954 0.000480508 0
0.00154052 0.00048477 0
0.00153 0.0005 0
0.00154775 0.00043875 0
0.00152142 0.000456625 0
0.00152821 0.000445753 0
0.0015375 0.0004375 0
0.001504 0.0005 0
0.00149644 0.000485168 0
0.00151787 0.000443178 0
0.00152725 0.00043625 0
0.00150675 0.00043375 0
0.001517 0.000435 0
0.00148119 0.000450887 0
0.00148072 0.000475756 0
0.00146584 0.000463516 0
0.00150008 0.00046396 0
0.00149351 0.00044543 0
0.0015061 0.000446252 0
0.001476 0.00043 0
0.00148625 0.00043125 0
0.00146492 0.000482975 0
0.00144888 0.000473562 0
0.00146676 0.000444259 0
0.00145255 0.000453656 0
0.00145652 0.000438669 0
0.00141401 0.000479821 0
0.001426 0.0005 0
0.0014 0.0005 0
0.00144374 0.000438862 0
0.0014555 0.0004275 0
0.001435 0.000425 0
0.00144525 0.00042625 0
0.00142746 0.000438121 0
0.00141288 0.000443191 0
0.00141707 0.000432778 0
0.0013921 0.000438992 0
0.00140355 0.00045932 0
0.00138302 0.00045922 0
0.00142912 0.000458869 0
0.00140592 0.000430037 0
0.0014145 0.0004225 0
0.00136458 0.00045869 0
0.00137106 0.00044063 0
0.001394 0.00042 0
0.00138259 0.000428915 0
0.00137484 0.000477094 0
0.00139166 0.000478902 0
0.0013586 0.000478984 0
0.00133449 0.000478649 0
0.00134717 0.000461848 0
0.00137256 0.000425134 0
0.00135323 0.000424541 0
0.00136325 0.00041625 0
0.00136122 0.00042876 0
0.00131206 0.000447284 0
0.00133168 0.000456738 0
0.00131773 0.000465243 0
0.00134756 0.000440343 0
0.00132747 0.000436463 0
0.00133483 0.000426786 0
0.00131081 0.00041867 0
0.00132382 0.000422815 0
0.00131507 0.00043122 0
0.00131059 0.000480123 0
0.0013325 0.0004125 0
0.0012915 0.0004075 0
0.0012982 0.000418199 0
0.00128915 0.000426216 0
0.00126366 0.000447574 0
0.00127331 0.000430908 0
0.00128781 0.000444872 0
0.00125336 0.000428376 0
0.00130218 0.000431077 0
0.00127894 0.000416344 0
0.00124774 0.000469608 0
0.00127668 0.000464148 0
0.00126591 0.00048331 0
0.00126722 0.000418415 0
0.00125768 0.000411931 0
0.00124326 0.000413546 0
0.0012505 0.0004025 0
0.00122408 0.000450118 0
0.00120276 0.000447432 0
0.0012139 0.000432235 0
0.00124336 0.000444132 0
0.00123056 0.000427595 0
0.00122977 0.000409049 0
0.0012185 0.000469217 0
0.00122676 0.000485947 0
0.00120525 0.000486094 0
0.00121479 0.000413153 0
0.00119547 0.000424221 0
0.00120249 0.000407448 0
0.00119925 0.00039625 0
0.00119346 0.000406114 0
0.00117479 0.000447279 0
0.00114726 0.000445259 0
0.0011571 0.000427814 0
0.00119443 0.000466611 0
0.00117447 0.000421596 0
0.00118421 0.00040752 0
0.00117409 0.000404437 0
0.00116775 0.000470073 0
0.001179 0.0004855 0
0.00115473 0.000484802 0
0.0011685 0.0003925 0
0.00117875 0.00039375 0
0.00115454 0.000400551 0
0.001148 0.00039 0
0.00115825 0.00039125 0
0.00111703 0.000423398 0
0.00113786 0.000426731 0
0.00112589 0.000443871 0
0.00113234 0.000406671 0
0.00114754 0.000413371 0
0.001106 0.000442326 0
0.00109703 0.000424261 0
0.0011275 0.0003875 0
0.00113775 0.00038875 0
0.00110211 0.000480875 0
0.00108244 0.000471951 0
0.00109312 0.000458413 0
0.00111755 0.000399116 0
0.0010944 0.000392972 0
0.00110415 0.000405876 0
0.00108839 0.000407536 0
0.00106472 0.000476905 0
0.00107274 0.000457868 0
0.00108011 0.000392415 0
0.00106885 0.000404365 0
0.00106625 0.000388708 0
0.00105286 0.000419254 0
0.00105055 0.000395469 0
0.00104215 0.000439764 0
0.00106346 0.000440629 0
0.00100945 0.000451249 0
0.00102825 0.00045614 0
0.00101189 0.000468452 0
0.00107625 0.00038125 0
0.00105575 0.00037875 0
0.001066 0.00038 0
0.00103352 0.000476905 0
0.00101803 0.00048465 0
0.00103685 0.000389398 0
0.0010245 0.00038825 0
0.00103525 0.00037625 0
0.00101092 0.000399779 0
0.00101267 0.000382619 0
0.00101382 0.00042025 0
0.00103187 0.000405286 0
0.00103359 0.000424605 0
0.000987383 0.00045447 0
0.000999411 0.000435161 0
0.0009744 0.000433145 0
0.0010045 0.0003725 0
0.00101475 0.00037375 0
0.000970845 0.000465215 0
0.000952614 0.000467664 0
0.000961768 0.000449944 0
0.00099729 0.000387704 0
0.000978901 0.00039598 0
0.000985823 0.000381492 0
0.000962289 0.000393709 0
0.000974259 0.000381279 0
0.00097375 0.00036875 0
0.000963045 0.000376631 0
0.000958 0.0005 0
0.000932 0.0005 0
0.000947542 0.00048457 0
0.000949675 0.000385245 0
0.000936214 0.000389472 0
0.000940006 0.000374906 0
0.000966411 0.000412573 0
0.000944241 0.000407079 0
0.000903569 0.000424993 0
0.000921701 0.000402409 0
0.000927439 0.000427744 0
0.000889795 0.000409067 0
0.000903071 0.00040248 0
0.000925447 0.000377721 0
0.00093275 0.00036375 0
0.000907708 0.000387127 0
0.000911303 0.000370839 0
0.000911933 0.000455145 0
0.000930678 0.000473279 0
0.000911886 0.000482603 0
0.000887724 0.000388076 0
0.000899595 0.000375116 0
0.000902 0.00036 0
0.000889241 0.00036954 0
0.000836977 0.000459472 0
0.000836223 0.000483578 0
0.000820467 0.000474142 0
0.000871227 0.000403557 0
0.000861 0.000355 0
0.000868368 0.000365714 0
0.00085484 0.00036588 0
0.000847735 0.000402845 0
0.000823121 0.000421599 0
0.000826582 0.000398147 0
0.000846943 0.00042454 0
0.000838832 0.000378613 0
0.000835569 0.000363808 0
0.000844098 0.00036291 0
0.00085075 0.00035375 0
0.000851465 0.000477164 0
0.00083025 0.00035125 0
0.000822824 0.000368659 0
0.00081446 0.000357362 0
0.000805884 0.000371794 0
0.000753471 0.000477524 0
0.000738313 0.000473927 0
0.000739102 0.000461526 0
0.00079826 0.000358588 0
0.000788607 0.000376287 0
0.000781733 0.000357987 0
0.000816783 0.000384471 0
0.000807975 0.000404095 0
0.000752138 0.000404775 0
0.000767682 0.000417043 0
0.000749617 0.000421803 0
0.000752903 0.000384008 0
0.000738293 0.000393136 0
0.000772614 0.000394048 0
0.00076863 0.000371878 0
0.000765995 0.000354121 0
0.000779 0.000345 0
0.00071811 0.000453059 0
0.000738069 0.000437967 0
0.000752085 0.000365972 0
0.000728123 0.000374583 0
0.000741845 0.000354664 0
[...]
CELL_DATA 58684
VECTORS velocity DOUBLE
64.871 0.173495 0
72.5205 0.000452986 0
72.4042 -0.000174944 0
72.5735 0.000110599 0
72.3898 -0.00683365 0
72.6052 -0.0179097 0
72.3844 -0.0018329 0
67.8306 0.00395827 0
67.8508 -0.0105819 0
67.9462 0.00269234 0
68.0259 0.00234195 0
68.0527 -0.208547 0
67.8874 -0.0375032 0
68.1168 -0.0664281 0
67.8675 -0.0617813 0
68.2428 -0.094965 0
67.8258 -0.0470465 0
68.4616 -0.0967404 0
67.8903 -0.115353 0
68.7794 -0.0706031 0
67.8198 -0.0516668 0
68.4452 -0.22859 0
72.0202 -1.30966 0
67.8009 0.0034069 0
67.8173 0.00731133 0
67.7992 0.00481674 0
67.8507 0.0196102 0
67.8478 0.00445689 0
67.8302 0.020436 0
67.9221 0.00655898 0
67.8108 0.0233514 0
67.8971 0.008659 0
67.8089 0.0212148 0
68.1013 0.0584845 0
67.8296 0.467665 0
68.0277 0.0261801 0
67.8017 0.0306253 0
68.1374 0.149589 0
72.6128 -0.0183999 0
72.6414 -0.00128203 0
72.6979 -0.0258823 0
72.7005 -0.0295634 0
72.7148 -0.0021537 0
72.7707 -0.0280046 0
72.7726 -0.0417847 0
72.7734 -0.0353322 0
72.7902 -0.00548813 0
72.83 -0.0493203 0
72.8264 -0.0462148 0
72.8301 -0.00659111 0
72.8805 -0.0524226 0
72.8723 -0.0571538 0
72.8707 -0.0428746 0
72.8732 -0.010599 0
72.8967 -0.0569615 0
72.889 -0.0468644 0
72.8812 -0.0112613 0
72.9178 -0.0651799 0
72.9047 -0.0584966 0
72.8967 -0.0386582 0
72.8963 -0.00850032 0
72.912 -0.0553465 0
72.8892 -0.035326 0
72.8859 -0.00883778 0
72.9059 -0.0516461 0
72.8983 -0.0487165 0
72.8877 -0.0366929 0
72.8592 -0.00822335 0
72.8679 -0.0337618 0
72.8518 -0.0272834 0
72.8201 -0.00719482 0
72.8264 -0.0223166 0
72.8127 -0.0202944 0
72.793 -0.00930288 0
72.7559 -0.00742859 0
72.7508 0.00152562 0
72.7328 0.00209408 0
72.688 -0.00735384 0
72.6894 0.0117959 0
72.6225 0.00637512 0
72.6751 0.00985177 0
72.603 -0.00617371 0
72.5737 0.0139808 0
72.6027 0.0176638 0
72.509 0.00980969 0
72.5334 0.00840455 0
72.55 0.0151769 0
72.5206 0.0168267 0
72.4518 -0.00686834 0
72.442 -0.0118814 0
72.4804 0.000832044 0
72.4556 -0.00767636 0
72.4171 -0.0284123 0
72.4258 -0.0154815 0
72.4215 -0.0360613 0
72.4101 -0.0710202 0
72.4025 -0.0539792 0
72.4112 -0.0733255 0
72.4253 -0.108119 0
72.4186 -0.103704 0
72.4776 -0.19132 0
72.4195 -0.117737 0
72.4984 -0.0648081 0
72.4638 -0.206931 0
72.532 -0.22463 0
72.491 -0.243364 0
72.5827 -0.0851635 0
72.539 -0.279057 0
72.5973 -0.350321 0
72.7225 -0.266767 0
72.7177 -0.251345 0
72.6221 -0.330913 0
72.754 -0.478827 0
72.8289 -0.233943 0
72.9709 -0.469446 0
72.9264 -0.315818 0
73.2369 -0.0213261 0
72.9285 -0.555485 0
73.0367 -0.670459 0
73.321 -0.612839 0
73.5245 -0.495097 0
73.2722 -0.383213 0
73.3388 -0.727437 0
73.7433 -0.488402 0
73.5947 -0.808841 0
73.6072 -0.274128 0
73.7222 -0.706353 0
74.0195 -0.250451 0
73.846 -0.828158 0
74.0242 -0.95821 0
74.4357 -0.480678 0
74.2908 -0.738351 0
74.2087 -0.333822 0
74.5692 -0.887842 0
74.3109 -0.258196 0
74.3781 -0.94696 0
74.879 -0.86775 0
74.9634 -0.52124 0
75.0132 -0.56634 0
74.8158 -0.728128 0
74.9989 -0.722037 0
74.7677 -0.272059 0
75.2371 -0.693702 0
75.3684 -0.662423 0
75.3245 -0.192895 0
75.0103 -0.231216 0
75.3185 -0.506217 0
75.3569 -0.538523 0
75.0692 -0.0644388 0
75.5779 -0.283285 0
75.625 -0.176748 0
75.2903 0.116491 0
75.1423 -0.0596533 0
75.5918 0.00185918 0
75.5927 0.00610466 0
75.153 0.016438 0
75.6288 0.086798 0
75.5067 0.345789 0
75.0892 0.393752 0
75.4145 0.395096 0
74.9387 0.547496 0
75.4097 0.611224 0
74.7283 0.205248 0
75.3974 0.62648 0
75.0819 0.802217 0
74.5172 0.250207 0
74.7211 1.08062 0
74.4872 0.956042 0
74.3725 0.5457 0
73.8701 0.385862 0
74.7651 1.10815 0
74.5578 1.26689 0
73.9252 0.189225 0
74.1611 1.17076 0
73.8267 1.15239 0
74.1499 0.797247 0
73.6227 0.385818 0
73.5133 0.499291 0
73.7157 1.30572 0
73.3006 0.222813 0
73.3554 0.984613 0
73.2431 0.770664 0
73.1959 0.93934 0
73.2113 -0.00795675 0
72.8352 0.572685 0
73.2087 0.530782 0
72.9014 0.151092 0
72.7969 0.0204763 0
72.6674 0.493168 0
72.553 0.327347 0
72.9634 0.0557077 0
72.5095 0.0509055 0
72.4992 0.0188865 0
72.5097 0.00170228 0
72.735 -0.122141 0
72.6349 -0.107581 0
72.4002 -0.434596 0
72.6926 -0.453443 0
72.6408 -0.367714 0
72.5135 -0.683832 0
72.4235 -0.583743 0
72.7595 -0.0919855 0
72.5402 -0.910382 0
72.5863 -0.854289 0
72.879 -0.166546 0
72.748 -1.08575 0
72.6668 -0.595085 0
72.9338 -0.606645 0
72.9906 -0.80253 0
72.8698 -0.945492 0
72.8356 -1.22424 0
72.9032 -0.329184 0
73.1512 -1.0863 0
73.0676 -1.36767 0
73.4001 -1.202 0
72.9283 -0.0207506 0
73.1771 -0.876647 0
73.3878 -1.17244 0
72.9401 -0.217988 0
73.4736 -1.16396 0
73.2823 -0.480937 0
73.5326 -1.21194 0
73.1112 -0.163123 0
73.6352 -0.680701 0
73.6276 -0.851578 0
72.9728 -0.0809749 0
73.7872 -0.738065 0
73.6762 -0.360308 0
73.3879 -0.44073 0
73.228 -0.196484 0
73.7521 -0.276185 0
73.1084 -0.0999332 0
72.9137 -0.0214316 0
73.5626 -0.263659 0
73.6972 -0.121546 0
73.6004 -0.0464961 0
73.0173 -0.0624484 0
73.3636 0.0403996 0
73.2553 0.158932 0
72.9135 -0.0292992 0
73.0778 0.164474 0
73.1998 0.285482 0
73.1699 0.0581493 0
72.9828 -0.0867622 0
73.0063 -0.105684 0
73.0165 0.260038 0
72.9891 -0.00410873 0
72.8916 0.310378 0
72.755 0.13771 0
72.8025 0.232813 0
73.0944 -0.212206 0
72.8904 -0.12336 0
72.666 -0.336722 0
73.1776 -0.00420263 0
72.6131 -0.350334 0
72.8603 -0.729708 0
72.9786 -0.359366 0
73.168 -0.29545 0
72.675 -0.674134 0
73.2118 -0.380375 0
73.4874 -0.0728017 0
72.9961 -0.784848 0
72.8041 -1.10099 0
72.9732 -1.21133 0
73.5708 -0.285175 0
73.5264 -1.23192 0
73.0842 -1.38394 0
73.7345 -0.15769 0
73.3378 -1.72406 0
73.6958 -1.89393 0
73.9837 -1.03625 0
73.9297 0.00157115 0
74.1307 -1.98146 0
74.3227 -0.57366 0
74.6006 -0.618252 0
74.2662 -1.74849 0
74.2275 -1.30727 0
74.938 -1.79097 0
74.2261 -0.138078 0
74.7951 -2.01592 0
75.0761 -1.1576 0
75.5615 -1.53922 0
74.035 -0.0333803 0
76.0235 -0.709591 0
75.933 -0.397873 0
73.8691 0.0711613 0
76.2331 -1.31373 0
76.5626 -0.561502 0
74.7744 0.411925 0
74.2655 0.120155 0
75.4108 -0.22556 0
76.6633 0.0330419 0
74.0015 0.141923 0
76.5008 0.870056 0
76.7431 0.0157342 0
76.7571 0.277252 0
73.8079 0.76173 0
75.6558 1.1921 0
76.687 1.22693 0
73.7157 0.130474 0
76.5119 1.68808 0
76.4151 1.75198 0
75.8203 3.06514 0
72.6301 0.225711 0
76.5891 2.72408 0
75.0711 1.91082 0
73.5618 0.886468 0
73.5733 1.82973 0
76.4476 3.08832 0
75.8349 3.61827 0
72.9611 0.382096 0
75.7122 4.15213 0
72.3684 0.00692756 0
72.3607 0.000910756 0
72.3494 -0.00618247 0
72.345 0.00601672 0
72.325 0.00128579 0
72.3157 -0.00240964 0
72.3105 0.00409566 0
72.3009 0.0124984 0
72.2876 0.00418341 0
72.284 0.0072103 0
72.279 0.0134908 0
72.2595 0.00504873 0
72.2665 0.0175458 0
72.2579 0.0249117 0
72.2506 0.0267305 0
72.2403 0.00931486 0
72.2484 0.0368307 0
72.2414 0.0372516 0
72.2291 0.0110099 0
72.2588 0.0580275 0
72.2496 0.0623493 0
72.2828 0.092024 0
72.242 0.0450856 0
72.2855 0.0635961 0
72.3256 0.112894 0
72.2672 0.0770681 0
72.3294 0.133514 0
72.3452 0.105314 0
72.391 0.163004 0
72.3288 0.0828326 0
72.4032 0.122541 0
72.4758 0.2053 0
72.4046 0.0931855 0
72.5587 0.246473 0
72.5591 0.238737 0
72.5945 0.177998 0
72.5032 0.123639 0
72.5923 0.196016 0
72.698 0.187562 0
72.6273 0.131064 0
72.8107 0.347432 0
72.7617 0.142489 0
72.8636 0.225627 0
72.7661 0.182787 0
72.8762 0.302785 0
73.0654 0.332705 0
73.0975 0.187122 0
73.0143 0.310349 0
73.2007 0.359352 0
73.2045 0.390135 0
73.3399 0.193788 0
73.2835 0.2513 0
73.4088 0.332732 0
73.5268 0.4606 0
73.5075 0.210962 0
73.5874 0.337892 0
73.6538 0.435679 0
73.6529 0.207705 0
73.5445 0.299901 0
73.7549 0.423171 0
73.7513 0.385357 0
73.7499 0.199676 0
73.8263 0.132855 0
73.8568 0.261369 0
73.5818 0.126588 0
73.9408 0.281977 0
74.0503 0.234685 0
73.9779 0.235536 0
73.9132 0.156128 0
74.0626 0.184839 0
74.0786 0.157398 0
73.98 -0.00686066 0
73.9943 0.148039 0
74.0851 0.0604622 0
74.0912 0.01714 0
73.9581 0.0403123 0
74.0225 0.00391212 0
74.0827 -0.0722993 0
74.001 0.00446637 0
74.0702 -0.0664042 0
74.0018 -0.198871 0
73.9664 -0.124589 0
73.8154 -0.0555314 0
73.9458 -0.206048 0
73.928 -0.21924 0
73.7273 -0.059326 0
73.8501 -0.30335 0
73.8576 -0.210094 0
73.7425 -0.24967 0
73.7928 -0.150674 0
73.7197 -0.364358 0
73.5184 -0.420344 0
73.4842 -0.0871178 0
73.5799 -0.276133 0
73.419 -0.424544 0
73.4504 -0.277423 0
73.5376 -0.125718 0
73.3591 -0.350519 0
73.2987 -0.312289 0
73.3176 -0.0526804 0
73.2726 -0.075676 0
73.2155 -0.172202 0
73.1806 -0.261886 0
73.3213 -0.164391 0
73.1278 -0.15061 0
73.1062 -0.0897333 0
73.2335 0.0291729 0
73.1727 -0.0312244 0
73.0953 0.0632568 0
73.1217 0.102039 0
73.23 -0.0114542 0
73.1209 0.179791 0
73.0978 0.30098 0
73.3208 0.146738 0
73.1632 0.19954 0
73.2331 0.484174 0
73.2622 0.41273 0
73.2533 0.0607345 0
73.2625 0.538021 0
73.4482 0.809634 0
73.4478 0.181321 0
73.4473 0.67289 0
73.6289 0.286173 0
73.6171 0.730751 0
73.5829 0.35276 0
73.6531 0.949558 0
73.8432 0.975684 0
73.7768 0.237116 0
73.8166 0.948161 0
74.0976 1.08174 0
74.0349 0.213137 0
73.7928 0.76174 0
74.0883 0.845642 0
74.2486 1.00271 0
74.0167 0.138406 0
74.3042 0.831019 0
74.5863 0.955491 0
74.512 0.674811 0
74.2261 0.180977 0
74.65 0.525509 0
74.1724 0.267366 0
74.3336 0.777245 0
74.6704 0.727135 0
74.8516 0.553826 0
74.8234 0.428663 0
74.2006 0.0176417 0
74.9202 0.208314 0
74.9264 0.11226 0
74.6582 -0.144493 0
74.317 -0.0542492 0
74.1857 -0.127462 0
74.8085 -0.0996591 0
74.3274 0.0943776 0
74.7564 -0.409991 0
74.651 -0.407291 0
74.3879 -0.476281 0
73.9935 -0.115405 0
74.4592 -0.664481 0
74.1173 -1.03389 0
73.7975 -0.29925 0
73.9857 -0.258938 0
73.9751 -0.791969 0
73.7067 -1.16083 0
74.0509 -0.103391 0
73.5396 -1.28482 0
73.4013 -1.17547 0
73.2966 -0.141589 0
72.8965 -1.25883 0
72.7712 -1.14216 0
72.5541 -0.684242 0
72.948 -0.252585 0
73.0419 -0.327689 0
72.847 -0.991079 0
73.1972 -0.217573 0
72.3293 -1.08188 0
72.1684 -0.806116 0
72.311 -0.473884 0
72.727 -0.0615044 0
71.8311 -0.396056 0
71.8172 -0.290179 0
72.2488 -0.143547 0
72.0293 0.0490991 0
72.2686 -0.0534979 0
71.7618 -0.0776664 0
72.4457 -0.0843245 0
71.6776 0.270635 0
71.6337 0.389729 0
72.4135 -0.0335633 0
71.8078 0.597949 0
71.7583 0.95262 0
71.7754 0.821735 0
72.3086 0.183595 0
72.045 1.31021 0
72.1157 1.48209 0
71.9901 0.458519 0
72.3061 1.11936 0
72.1947 0.343088 0
72.491 1.81211 0
72.4521 0.151577 0
72.5829 1.84469 0
72.629 1.79356 0
72.337 0.10538 0
72.5631 1.59288 0
73.2379 2.01564 0
73.4498 2.02383 0
72.875 0.447809 0
73.5877 1.95731 0
73.6963 2.12207 0
72.6088 1.13368 0
73.8015 1.27881 0
73.1236 0.447394 0
74.0037 2.01574 0
73.2075 0.163683 0
74.2682 1.79905 0
74.4192 1.7041 0
72.9605 0.113962 0
74.1246 1.41568 0
74.7605 1.33147 0
74.9429 1.18306 0
73.5819 0.309395 0
74.7617 1.14147 0
75.0254 0.946566 0
74.3136 1.17785 0
74.8339 0.585394 0
73.7617 0.219461 0
74.8085 0.962153 0
73.891 0.084437 0
75.1543 0.704926 0
75.211 0.545474 0
73.6907 0.0818786 0
75.0153 0.355757 0
75.2363 0.266288 0
75.289 0.144591 0
74.201 0.00875035 0
75.299 0.00598932 0
75.3256 -0.0302185 0
74.3862 -0.0525745 0
75.317 -0.0675299 0
75.0692 -0.208371 0
74.4382 0.0934344 0
74.2237 0.133473 0
75.3594 -0.159306 0
75.358 -0.315222 0
75.5197 -0.345456 0
74.0997 -0.00439115 0
75.3583 -0.52506 0
75.6276 -0.596318 0
74.2314 -0.0405616 0
75.2633 -0.524974 0
75.7409 -0.833477 0
75.1339 -0.797356 0
74.3519 -0.290087 0
75.7493 -1.01247 0
75.8157 -1.20699 0
74.9436 -0.466515 0
75.0217 -1.51206 0
73.9569 -1.43159 0
75.6905 -1.33697 0
73.8239 -0.211918 0
75.8883 -1.78456 0
75.1881 4.63384 0
75.637 4.07953 0
72.053 1.28265 0
75.1544 4.60931 0
73.7004 4.37983 0
74.6039 5.10431 0
72.353 0.494895 0
74.0378 5.28886 0
73.3399 5.30147 0
71.6254 0.66167 0
73.3179 5.59797 0
75.9055 -2.07937 0
73.9382 -0.122338 0
75.871 -2.30137 0
75.2803 -2.68501 0
74.8111 -2.32939 0
73.6016 -0.152642 0
75.4975 -3.02449 0
72.5922 5.23239 0
75.2291 -3.83511 0
73.5976 -0.793133 0
75.0949 -3.76319 0
74.5321 -4.41187 0
70.9584 1.61246 0
74.3651 -4.41761 0
74.7263 -2.2847 0
74.744 -3.94605 0
73.4338 -3.01602 0
72.5118 -0.506012 0
74.1533 -4.08931 0
73.7468 -4.4414 0
72.1718 5.50572 0
73.7621 -4.43892 0
72.9598 -0.262023 0
73.1645 -4.76416 0
72.8147 -5.20657 0
72.1871 -0.336047 0
72.1756 -5.40693 0
72.3714 -3.9156 0
71.0328 -0.425679 0
71.6004 -5.53491 0
71.4285 -3.09704 0
72.2976 -2.32351 0
71.922 -4.73677 0
71.1946 -5.05334 0
72.6934 2.87693 0
70.4342 0.365833 0
72.2263 1.9552 0
71.3712 -0.0441514 0
70.9342 -5.45795 0
72.0032 5.24078 0
70.311 0.258317 0
71.5176 4.4933 0
70.3765 -5.45697 0
71.1249 -1.0985 0
69.8196 -3.96273 0
71.4965 5.93674 0
69.615 1.36839 0
71.4738 5.86471 0
70.0544 5.03142 0
69.8032 0.27395 0
70.5434 5.25281 0
70.1609 -4.10729 0
70.8792 -0.317953 0
69.8161 -5.58795 0
69.8648 -5.41915 0
70.7443 5.62231 0
69.4887 5.43316 0
69.4114 0.0227144 0
70.174 5.59364 0
68.8929 3.42681 0
69.3682 1.54512 0
69.1803 -5.56794 0
69.7301 -0.697483 0
69.4249 -5.46995 0
68.5814 5.68292 0
68.7496 -5.14593 0
69.2286 -0.681063 0
68.9528 -2.19473 0
67.9928 -4.96398 0
69.8498 -2.63466 0
67.8385 -4.77114 0
68.9624 -0.186408 0
67.2068 -4.60978 0
68.5238 1.89556 0
68.9982 0.293616 0
68.3155 4.80179 0
68.6716 0.0665492 0
68.1071 5.60419 0
68.0094 5.27497 0
68.4735 0.111025 0
67.4871 4.5964 0
68.3576 0.0718473 0
68.1027 -4.26499 0
68.9631 -0.359966 0
68.7517 4.11644 0
67.7709 0.16777 0
67.2865 4.31871 0
67.1336 -4.62056 0
69.0543 -0.155306 0
65.9464 -3.93167 0
67.7925 -0.183837 0
66.4584 -3.8969 0
68.0653 1.62563 0
67.785 0.0197777 0
68.5933 -3.42865 0
67.7937 -0.0494254 0
66.0198 -3.69583 0
66.8273 3.88821 0
67.0405 -2.86857 0
67.8098 -0.0960785 0
66.2226 -3.16926 0
67.5784 2.02023 0
66.0146 1.23421 0
66.4755 3.33723 0
67.5511 -0.625926 0
66.1515 -3.49849 0
67.7407 0.0456737 0
66.3767 4.52861 0
67.557 -1.57432 0
67.7878 -0.0451484 0
65.9135 -3.19396 0
66.2852 4.08513 0
67.7125 0.168116 0
66.1928 3.17485 0
66.0291 3.12284 0
67.7125 0.0349562 0
65.4952 2.77849 0
65.3224 -2.84772 0
67.7563 -0.136324 0
65.0598 -2.86589 0
66.7145 -1.37089 0
67.7671 -0.098392 0
64.7063 -1.98991 0
65.4562 3.51026 0
67.6322 0.118853 0
66.4012 2.15922 0
65.0641 -1.76499 0
67.6375 -0.203171 0
64.5838 -1.66123 0
64.6339 2.54104 0
67.635 -0.0208732 0
64.9054 2.40712 0
65.1472 1.92501 0
67.7739 -0.0279082 0
64.5832 2.08218 0
65.4512 -1.07156 0
67.5962 -0.341042 0
64.9015 -0.974904 0
64.0613 -0.634059 0
67.0765 -0.684528 0
64.221 -0.541192 0
66.7964 0.488195 0
67.6958 -0.0512396 0
66.1301 1.56351 0
64.5177 1.63291 0
67.5503 -0.111965 0
64.0968 1.0515 0
67.3137 -0.279369 0
67.7595 -0.0726952 0
64.0982 -0.196549 0
64.4377 -0.0839208 0
67.6941 -0.0933908 0
66.0648 0.0996955 0
64.6885 0.322267 0
67.7232 -0.0694912 0
67.1545 -3.80283 0
67.8484 -0.170667 0
67.787 0.0257628 0
67.5992 4.73751 0
68.3799 -5.14361 0
70.2586 -0.611455 0
69.2721 0.654998 0
69.9594 5.87641 0
67.7066 0.00836749 0
65.1097 3.35531 0
64.8068 -1.98551 0
67.7526 -0.101837 0
67.7839 -0.246049 0
67.3914 -2.43373 0
67.7979 0.225981 0
67.7785 0.0221622 0
67.6867 -0.0920727 0
64.4616 1.41381 0
68.6279 0.288313 0
68.0023 0.839114 0
68.3403 -0.849144 0
69.2708 -0.446305 0
72.2133 -0.758232 0
72.4968 -5.24835 0
73.5679 5.30517 0
72.1362 0.294845 0
67.5227 0.843368 0
68.568 5.4574 0
68.0727 -4.71313 0
68.6122 -1.50363 0
66.9268 -1.04199 0
65.2554 -0.205687 0
66.3527 4.01168 0
67.7419 1.03761 0
67.7181 -1.13048 0
65.3903 -3.21218 0
75.7746 -2.67277 0
73.4675 -0.374405 0
73.5063 0.444836 0
76.5658 2.29828 0
67.8234 -0.406013 0
67.8321 -0.0228465 0
67.8333 0.0174137 0
68.4258 0.429277 0
70.8227 0.494789 0
70.621 2.80323 0
69.7859 -1.27081 0
71.4567 -1.0892 0
69.9182 3.35254 0
71.809 5.57754 0
71.3078 -5.52617 0
70.5194 -1.21874 0
72.7845 1.00812 0
73.7226 3.2498 0
72.5379 -1.66142 0
72.9567 -0.0219996 0
74.2501 -0.0870442 0
75.563 -0.425847 0
75.7208 -1.65353 0
74.0249 0.00854165 0
73.8776 0.00110985 0
75.2037 0.470278 0
73.8297 -1.75175 0
73.7558 -0.160141 0
68.554 -0.926305 0
68.218 -0.3266 0
68.0119 0.615146 0
68.5625 0.579164 0
67.9193 0.553778 0
67.805 0.0275981 0
67.794 -0.0442812 0
67.9458 -0.628484 0
74.1204 0.439083 0
75.058 0.66693 0
74.1012 -0.573535 0
74.0257 -0.0732574 0
66.1691 -0.773553 0
67.7194 -0.12541 0
67.3596 -0.37363 0
67.7441 -0.179769 0
67.7563 0.0163977 0
67.6861 0.313956 0
74.5009 1.53115 0
73.4042 0.261963 0
73.2885 -0.00476745 0
72.5868 -0.247522 0
70.0682 -0.0221152 0
69.6355 -1.81346 0
70.1408 1.23636 0
69.4018 0.300561 0
67.4224 2.69204 0
66.9391 5.01884 0
67.1024 -4.20791 0
67.9418 -2.14167 0
68.3341 -1.36489 0
67.4007 -1.49451 0
67.4538 3.12152 0
67.7885 1.32779 0
73.8641 -0.238688 0
73.9911 -0.103243 0
74.1815 0.00431843 0
74.8991 0.248562 0
68.8595 -3.51867 0
69.5458 -3.39579 0
69.1584 3.14921 0
69.4434 5.85754 0
68.4377 -2.5987 0
69.251 -1.48716 0
68.937 2.09135 0
68.5565 0.971421 0
73.1291 2.15109 0
72.6742 0.211797 0
72.938 -0.00699342 0
73.3611 0.228106 0
67.2054 0.434107 0
67.7506 -0.023456 0
73.3167 -0.14869 0
73.4428 -0.822764 0
74.2314 0.447399 0
73.5304 0.0782857 0
68.4451 -0.587809 0
68.0921 -0.791587 0
68.4957 1.09526 0
67.9928 0.277194 0
67.8187 -0.0636673 0
67.9992 -0.333528 0
67.8731 0.0411849 0
67.8005 0.0227105 0
64.7682 1.14661 0
66.8909 0.853151 0
73.0114 -1.87905 0
75.1956 -3.50956 0
76.0992 3.48629 0
72.9639 1.44143 0
66.867 -1.58576 0
65.3211 -2.00338 0
72.2727 0.0721261 0
71.7063 0.610011 0
73.0992 -0.0887736 0
71.9087 -0.482896 0
73.7121 -0.558286 0
73.0132 -0.0856964 0
73.1785 -1.21699 0
72.891 -0.0254723 0
72.996 -0.11982 0
72.9667 -0.144807 0
73.1096 0.660568 0
72.8782 0.0104268 0
67.7283 -0.00795017 0
67.5215 0.0839019 0
66.5189 0.175131 0
64.9426 0.527179 0
67.653 -0.191145 0
67.7344 -0.10775 0
67.2591 -0.000326927 0
67.2382 -0.576351 0
75.7746 -0.995484 0
74.1501 -0.911773 0
75.2642 0.926844 0
76.5364 -0.58079 0
67.9563 -0.0252644 0
68.0136 -0.156632 0
67.8387 0.0104532 0
68.0778 0.0974611 0
72.9762 -0.0653206 0
73.246 -0.131762 0
72.4637 0.482672 0
72.2814 0.0798241 0
73.638 -0.194745 0
73.6754 -0.959038 0
72.6039 -1.02874 0
72.783 -0.197172 0
68.2194 -0.511918 0
68.7571 -1.40083 0
68.2642 0.97258 0
68.0589 0.677914 0
68.4042 1.88011 0
67.3563 1.00521 0
67.8677 -1.23275 0
68.2829 -1.83361 0
74.6302 -0.188744 0
75.132 0.2855 0
74.2319 -1.81792 0
74.7448 -0.520963 0
67.5579 -0.735641 0
67.6501 -0.849629 0
67.6224 0.396872 0
67.2002 0.628648 0
74.3763 -0.83562 0
74.2265 -0.0388382 0
72.825 -0.0368243 0
72.4471 -0.246727 0
72.1355 2.85591 0
73.5909 4.71132 0
73.1712 -5.10595 0
72.5786 -2.02283 0
65.7249 -2.35869 0
67.3643 -2.35038 0
71.7977 -1.90775 0
72.0385 -0.677756 0
71.2387 0.327149 0
73.1387 1.95253 0
65.3205 3.18759 0
66.6732 1.75542 0
72.9342 -0.049821 0
73.3777 -0.487579 0
72.2863 0.0611426 0
72.3762 -0.0140345 0
73.6318 -0.196285 0
73.6366 -0.836053 0
74.2433 1.06339 0
73.5286 0.154454 0
70.8771 0.976062 0
69.8225 0.241497 0
70.5055 -0.215867 0
70.8684 -1.97052 0
74.137 0.55406 0
74.4767 1.27986 0
72.8715 -0.89813 0
73.8316 -0.730772 0
70.3352 -2.44897 0
70.9175 -1.15613 0
70.4686 1.85333 0
72.1451 4.05143 0
74.7559 0.311239 0
74.3024 0.0785157 0
72.9334 0.0226358 0
73.1069 0.86651 0
72.8267 -0.272187 0
72.8535 -0.0201398 0
72.8049 -0.085445 0
73.5458 -0.700109 0
68.982 0.321277 0
68.8209 0.836031 0
69.1059 -0.734277 0
69.5865 -0.216689 0
69.8607 1.92393 0
68.9077 1.27174 0
68.5605 -1.84961 0
68.0092 -1.89509 0
74.2889 -0.209229 0
74.1681 -0.114558 0
74.1854 0.0309263 0
74.5119 -0.190816 0
68.7618 2.58125 0
69.1752 1.71861 0
68.7211 -0.534193 0
68.6392 -0.196885 0
68.4509 0.150704 0
68.8261 0.569493 0
66.6432 -0.694481 0
67.4224 -0.881215 0
75.7052 -1.62354 0
74.3028 -1.08548 0
74.6307 2.20966 0
76.7269 1.57673 0
67.7691 -0.453867 0
67.7933 -0.0706425 0
67.77 0.0254771 0
67.7985 0.241281 0
68.046 0.0258248 0
68.0375 0.25383 0
68.201 -0.180947 0
68.305 -0.00613884 0
65.836 -0.272356 0
64.0798 0.072875 0
72.0487 2.16174 0
74.4277 1.70945 0
73.3479 -1.43796 0
73.9284 -2.85602 0
67.3581 1.19376 0
67.055 0.54277 0
67.7787 -0.0305237 0
67.5308 -0.157058 0
69.1867 4.6869 0
67.7406 2.7107 0
69.0581 -2.78818 0
68.4204 -5.34024 0
67.2457 0.28981 0
67.6398 0.0382952 0
73.1182 0.895652 0
73.4966 2.11637 0
73.0112 0.234419 0
72.9892 -0.0976417 0
72.8077 -0.0674009 0
72.7501 -0.106341 0
73.5543 -0.081037 0
74.4568 -0.300197 0
75.5459 -1.43189 0
75.4887 0.0589985 0
74.918 -0.162036 0
75.4068 -0.243391 0