# vtk DataFile Version 3.0
Unstructured Grid for Triangles
ASCII
DATASET UNSTRUCTURED_GRID
POINTS 29612 DOUBLE
-0.000272397 1.23686e-05 0
-0.000295789 9.5838e-06 0
-0.000277865 -3.1235e-06 0
0.002024 0.0005 0
0.00203975 0.00049875 0
0.00205 0.0005 0
0.00203975 -0.00049875 0
0.002024 -0.0005 0
0.00205 -0.0005 0
0.0020295 0.0004975 0
0.0020295 -0.0004975 0
0.00201925 0.00049625 0
0.00201925 -0.00049625 0
-0.000529747 -0.000479887 0
-0.00055 -0.0005 0
-0.000524 -0.0005 0
-0.000505983 -0.000484325 0
-0.000498 -0.0005 0
-0.000472 -0.0005 0
-0.000483864 -0.000487761 0
-0.000446 -0.0005 0
-0.000459 -0.000484239 0
-0.000429453 -0.000424878 0
-0.000447486 -0.000420717 0
-0.000441829 -0.000436609 0
-0.000512578 -0.000462101 0
-0.000493078 -0.000453594 0
-0.00050706 -0.000439006 0
-0.000419243 -0.000477545 0
-0.000440307 -0.000471837 0
-0.00043691 -0.000486724 0
-0.000516129 -0.000420948 0
-0.000495355 -0.000415432 0
-0.000511646 -0.00040128 0
-0.000394697 -0.000481197 0
-0.000406302 -0.000455143 0
-0.000537257 -0.000388197 0
-0.000531099 -0.000407297 0
-0.000523982 -0.000388328 0
-0.000370063 -0.000472956 0
-0.000368 -0.0005 0
-0.00035308 -0.000485302 0
-0.0005072 -0.00037867 0
-0.000485506 -0.000383975 0
-0.000490949 -0.000359622 0
-0.000337127 -0.000484331 0
-0.000316 -0.0005 0
-0.000326495 -0.00047415 0
-0.00055 -0.00035 0
-0.000531201 -0.000370361 0
-0.000528367 -0.000346817 0
-0.000363898 -0.000448809 0
-0.000383315 -0.000460336 0
-3.26269e-05 -0.000415503 0
-5.99662e-05 -0.000409556 0
-5.46944e-05 -0.000429488 0
-0.000529747 0.000479887 0
-0.00055 0.0005 0
-0.00055 0.000475 0
-0.00055 0.00045 0
-0.000534834 0.000429171 0
-0.000526943 0.000442611 0
-0.000534026 0.000460176 0
-0.000531099 0.000407297 0
-0.000511672 0.000401178 0
-0.000516129 0.000420948 0
-0.000524 0.0005 0
-0.000505983 0.000484325 0
-0.000531201 0.000370361 0
-0.0005072 0.00037867 0
-0.000523982 0.000388328 0
-0.00048341 0.000469132 0
-0.000483679 0.000487539 0
-0.000528367 0.000346817 0
-0.00055 0.000325 0
-0.000525657 0.000328474 0
-0.000498 0.0005 0
-0.000530382 0.0003125 0
-0.000419243 0.000477545 0
-0.000440015 0.00047335 0
-0.000425917 0.000463678 0
-0.000435138 0.000262661 0
-0.000414982 0.000274462 0
-0.000435654 0.000285217 0
-0.000459 0.000484239 0
-0.000436852 0.000487027 0
-0.000446 0.0005 0
-0.000533308 0.000292503 0
-0.00055 0.000275 0
-0.000523377 0.000276953 0
-0.000425282 0.000446352 0
-0.000409368 0.000435728 0
-0.000406302 0.000455143 0
0.002009 0.000495 0
0.001998 0.0005 0
0.00199875 0.00049375 0
0.0019885 0.0004925 0
0.001972 0.0005 0
0.00197825 0.00049125 0
0.001968 0.00049 0
0.00195775 0.00048875 0
0.001946 0.0005 0
0.0019475 0.0004875 0
0.00193725 0.00048625 0
0.00192 0.0005 0
0.001927 0.000485 0
0.00191675 0.00048375 0
0.0019065 0.0004825 0
0.001894 0.0005 0
0.00189625 0.00048125 0
0.001886 0.00048 0
0.001868 0.0005 0
0.00187575 0.00047875 0
0.0018655 0.0004775 0
0.00185515 0.00048575 0
0.001842 0.0005 0
0.001845 0.000475 0
0.00185525 0.00047625 0
0.00182564 0.0004829 0
0.001816 0.0005 0
0.0018245 0.0004725 0
0.00183475 0.00047375 0
0.00181425 0.00047125 0
0.00180295 0.000482657 0
0.00179 0.0005 0
0.00179375 0.00046875 0
0.001804 0.00047 0
0.00178168 0.000480619 0
0.001764 0.0005 0
0.00177325 0.00046625 0
0.0017835 0.0004675 0
0.00176428 0.000476631 0
0.001763 0.000465 0
0.001738 0.0005 0
0.001751 0.000484164 0
0.00175275 0.00046375 0
0.00174025 0.000475632 0
0.001712 0.0005 0
0.00172615 0.000478449 0
0.001722 0.00046 0
0.00173225 0.00046125 0
0.0017015 0.0004575 0
0.00171243 0.00047381 0
0.00169554 0.000479999 0
0.001686 0.0005 0
0.00167507 0.000479751 0
0.00168498 0.000464861 0
0.00166 0.0005 0
0.0016558 0.000471459 0
0.00167135 0.000462887 0
0.001681 0.000455 0
0.0016605 0.0004525 0
0.00167075 0.00045375 0
0.00164059 0.000461599 0
0.0016394 0.000479551 0
0.00162881 0.00046615 0
0.00162975 0.00044875 0
0.00165025 0.00045125 0
0.00164 0.00045 0
0.00161754 0.000458641 0
0.00161722 0.000478101 0
0.00159956 0.000458294 0
0.00160925 0.00044625 0
0.0016195 0.0004475 0
0.00157667 0.000460322 0
0.00158875 0.00044375 0
0.00159194 0.000480155 0
0.001599 0.000445 0
0.0015785 0.0004425 0
0.00155808 0.000456757 0
0.00155647 0.000476701 0
0.00154059 0.000466642 0
0.00153756 0.000450083 0
0.00154839 0.000450446 0
0.00156825 0.00044125 0
0.00151954 0.000480508 0
0.00154052 0.00048477 0
0.00153 0.0005 0
0.00154775 0.00043875 0
0.00152142 0.000456625 0
0.00152821 0.000445753 0
0.0015375 0.0004375 0
0.001504 0.0005 0
0.00149644 0.000485168 0
0.00151787 0.000443178 0
0.00152725 0.00043625 0
0.00150675 0.00043375 0
0.001517 0.000435 0
0.00148119 0.000450887 0
0.00148072 0.000475756 0
0.00146584 0.000463516 0
0.00150008 0.00046396 0
0.00149351 0.00044543 0
0.0015061 0.000446252 0
0.001476 0.00043 0
0.00148625 0.00043125 0
0.00146492 0.000482975 0
0.00144888 0.000473562 0
0.00146676 0.000444259 0
0.00145255 0.000453656 0
0.00145652 0.000438669 0
0.00141401 0.000479821 0
0.001426 0.0005 0
0.0014 0.0005 0
0.00144374 0.000438862 0
0.0014555 0.0004275 0
0.001435 0.000425 0
0.00144525 0.00042625 0
0.00142746 0.000438121 0
0.00141288 0.000443191 0
0.00141707 0.000432778 0
0.0013921 0.000438992 0
0.00140355 0.00045932 0
0.00138302 0.00045922 0
0.00142912 0.000458869 0
0.00140592 0.000430037 0
0.0014145 0.0004225 0
0.00136458 0.00045869 0
0.00137106 0.00044063 0
0.001394 0.00042 0
0.00138259 0.000428915 0
0.00137484 0.000477094 0
0.00139166 0.000478902 0
0.0013586 0.000478984 0
0.00133449 0.000478649 0
0.00134717 0.000461848 0
0.00137256 0.000425134 0
0.00135323 0.000424541 0
0.00136325 0.00041625 0
0.00136122 0.00042876 0
0.00131206 0.000447284 0
0.00133168 0.000456738 0
0.00131773 0.000465243 0
0.00134756 0.000440343 0
0.00132747 0.000436463 0
0.00133483 0.000426786 0
0.00131081 0.00041867 0
0.00132382 0.000422815 0
0.00131507 0.00043122 0
0.00131059 0.000480123 0
0.0013325 0.0004125 0
0.0012915 0.0004075 0
0.0012982 0.000418199 0
0.00128915 0.000426216 0
0.00126366 0.000447574 0
0.00127331 0.000430908 0
0.00128781 0.000444872 0
0.00125336 0.000428376 0
0.00130218 0.000431077 0
0.00127894 0.000416344 0
0.00124774 0.000469608 0
0.00127668 0.000464148 0
0.00126591 0.00048331 0
0.00126722 0.000418415 0
0.00125768 0.000411931 0
0.00124326 0.000413546 0
0.0012505 0.0004025 0
0.00122408 0.000450118 0
0.00120276 0.000447432 0
0.0012139 0.000432235 0
0.00124336 0.000444132 0
0.00123056 0.000427595 0
0.00122977 0.000409049 0
0.0012185 0.000469217 0
0.00122676 0.000485947 0
0.00120525 0.000486094 0
0.00121479 0.000413153 0
0.00119547 0.000424221 0
0.00120249 0.000407448 0
0.00119925 0.00039625 0
0.00119346 0.000406114 0
0.00117479 0.000447279 0
0.00114726 0.000445259 0
0.0011571 0.000427814 0
0.00119443 0.000466611 0
0.00117447 0.000421596 0
0.00118421 0.00040752 0
0.00117409 0.000404437 0
0.00116775 0.000470073 0
0.001179 0.0004855 0
0.00115473 0.000484802 0
0.0011685 0.0003925 0
0.00117875 0.00039375 0
0.00115454 0.000400551 0
0.001148 0.00039 0
0.00115825 0.00039125 0
0.00111703 0.000423398 0
0.00113786 0.000426731 0
0.00112589 0.000443871 0
0.00113234 0.000406671 0
0.00114754 0.000413371 0
0.001106 0.000442326 0
0.00109703 0.000424261 0
0.0011275 0.0003875 0
0.00113775 0.00038875 0
0.00110211 0.000480875 0
0.00108244 0.000471951 0
0.00109312 0.000458413 0
0.00111755 0.000399116 0
0.0010944 0.000392972 0
0.00110415 0.000405876 0
0.00108839 0.000407536 0
0.00106472 0.000476905 0
0.00107274 0.000457868 0
0.00108011 0.000392415 0
0.00106885 0.000404365 0
0.00106625 0.000388708 0
0.00105286 0.000419254 0
0.00105055 0.000395469 0
0.00104215 0.000439764 0
0.00106346 0.000440629 0
0.00100945 0.000451249 0
0.00102825 0.00045614 0
0.00101189 0.000468452 0
0.00107625 0.00038125 0
0.00105575 0.00037875 0
0.001066 0.00038 0
0.00103352 0.000476905 0
0.00101803 0.00048465 0
0.00103685 0.000389398 0
0.0010245 0.00038825 0
0.00103525 0.00037625 0
0.00101092 0.000399779 0
0.00101267 0.000382619 0
0.00101382 0.00042025 0
0.00103187 0.000405286 0
0.00103359 0.000424605 0
0.000987383 0.00045447 0
0.000999411 0.000435161 0
0.0009744 0.000433145 0
0.0010045 0.0003725 0
0.00101475 0.00037375 0
0.000970845 0.000465215 0
0.000952614 0.000467664 0
0.000961768 0.000449944 0
0.00099729 0.000387704 0
0.000978901 0.00039598 0
0.000985823 0.000381492 0
0.000962289 0.000393709 0
0.000974259 0.000381279 0
0.00097375 0.00036875 0
0.000963045 0.000376631 0
0.000958 0.0005 0
0.000932 0.0005 0
0.000947542 0.00048457 0
0.000949675 0.000385245 0
0.000936214 0.000389472 0
0.000940006 0.000374906 0
0.000966411 0.000412573 0
0.000944241 0.000407079 0
0.000903569 0.000424993 0
0.000921701 0.000402409 0
0.000927439 0.000427744 0
0.000889795 0.000409067 0
0.000903071 0.00040248 0
0.000925447 0.000377721 0
0.00093275 0.00036375 0
0.000907708 0.000387127 0
0.000911303 0.000370839 0
0.000911933 0.000455145 0
0.000930678 0.000473279 0
0.000911886 0.000482603 0
0.000887724 0.000388076 0
0.000899595 0.000375116 0
0.000902 0.00036 0
0.000889241 0.00036954 0
0.000836977 0.000459472 0
0.000836223 0.000483578 0
0.000820467 0.000474142 0
0.000871227 0.000403557 0
0.000861 0.000355 0
0.000868368 0.000365714 0
0.00085484 0.00036588 0
0.000847735 0.000402845 0
0.000823121 0.000421599 0
0.000826582 0.000398147 0
0.000846943 0.00042454 0
0.000838832 0.000378613 0
0.000835569 0.000363808 0
0.000844098 0.00036291 0
0.00085075 0.00035375 0
0.000851465 0.000477164 0
0.00083025 0.00035125 0
0.000822824 0.000368659 0
0.00081446 0.000357362 0
0.000805884 0.000371794 0
0.000753471 0.000477524 0
0.000738313 0.000473927 0
0.000739102 0.000461526 0
0.00079826 0.000358588 0
0.000788607 0.000376287 0
0.000781733 0.000357987 0
0.000816783 0.000384471 0
0.000807975 0.000404095 0
0.000752138 0.000404775 0
0.000767682 0.000417043 0
0.000749617 0.000421803 0
0.000752903 0.000384008 0
0.000738293 0.000393136 0
0.000772614 0.000394048 0
0.00076863 0.000371878 0
0.000765995 0.000354121 0
0.000779 0.000345 0
0.00071811 0.000453059 0
0.000738069 0.000437967 0
0.000752085 0.000365972 0
0.000728123 0.000374583 0
0.000741845 0.000354664 0
[...]
CELL_DATA 58684
VECTORS velocity DOUBLE
65.2947 0.416322 0
71.1368 0.000529918 0
71.3438 -0.000275312 0
71.1895 0.000736338 0
71.3334 -0.00792339 0
71.2226 -0.0169793 0
71.3324 -0.00206011 0
67.7784 -0.00311551 0
67.7778 -0.0156522 0
67.8181 -0.00269479 0
67.8705 -0.00436253 0
67.9046 -0.26534 0
67.7837 -0.0767839 0
67.9405 -0.0815322 0
67.7825 -0.126818 0
68.0561 -0.111576 0
67.7857 -0.0706013 0
68.2481 -0.0958443 0
67.8108 -0.218868 0
68.5334 -0.0613406 0
67.8008 -0.0711578 0
68.2428 -0.234837 0
71.7211 -1.15261 0
67.7791 0.00463339 0
67.7669 0.02652 0
67.7802 0.0130295 0
67.7676 0.078773 0
67.76 0.0118464 0
67.7763 0.107839 0
67.7742 0.0314182 0
67.7946 0.0805587 0
67.762 0.0194313 0
67.7529 0.0793787 0
67.9152 0.103516 0
67.8458 0.753899 0
67.8425 0.0419838 0
67.8117 0.0990266 0
67.959 0.238309 0
71.2321 -0.0157188 0
71.2644 0.00066506 0
71.3308 -0.0250776 0
71.3366 -0.0265385 0
71.3646 0.00188592 0
71.4376 -0.0264164 0
71.4489 -0.0401607 0
71.4592 -0.0282955 0
71.4954 0.00183555 0
71.5585 -0.0485963 0
71.564 -0.0413328 0
71.5955 0.00330394 0
71.6791 -0.0531033 0
71.6866 -0.0576227 0
71.6998 -0.0332688 0
71.7353 0.00263082 0
71.796 -0.0614675 0
71.8009 -0.0430894 0
71.8333 0.00340674 0
71.9213 -0.077021 0
71.9263 -0.0674168 0
71.9427 -0.034383 0
71.9876 0.00472064 0
72.0223 -0.0699064 0
72.0623 -0.0351991 0
72.1199 0.00318565 0
72.1531 -0.0624978 0
72.1634 -0.0516864 0
72.1944 -0.0299887 0
72.2159 0.00549731 0
72.2424 -0.0406056 0
72.2688 -0.0190221 0
72.2956 0.00745749 0
72.317 -0.0306915 0
72.3389 -0.0145451 0
72.3672 -0.0286523 0
72.3822 0.00790688 0
72.4065 7.19372e-05 0
72.4129 -0.00311327 0
72.4424 0.0106864 0
72.4578 0.0173109 0
72.4995 0.0316005 0
72.4699 0.0214205 0
72.4897 0.00983824 0
72.5052 0.0172821 0
72.512 0.0447109 0
72.5242 0.0319305 0
72.5306 0.0524368 0
72.5269 0.0640641 0
72.5337 0.0766976 0
72.5518 0.0614847 0
72.5493 0.0777509 0
72.5515 0.0710299 0
72.549 0.090702 0
72.558 0.0632775 0
72.5491 0.0630983 0
72.5611 0.0918449 0
72.5717 0.068948 0
72.574 0.0522479 0
72.5685 0.0801127 0
72.582 0.0710132 0
72.5945 0.0331077 0
72.6377 -0.00250355 0
72.5943 0.0471362 0
72.6568 -0.00924308 0
72.6265 0.00512561 0
72.6593 -0.0191768 0
72.6457 -0.0159349 0
72.7212 -0.0269262 0
72.669 -0.0393486 0
72.6975 -0.0797849 0
72.8147 -0.115683 0
72.7992 -0.0927467 0
72.7358 -0.109047 0
72.8085 -0.201987 0
72.8891 -0.123282 0
72.9604 -0.233628 0
72.9476 -0.164028 0
73.1999 -0.0103751 0
72.9157 -0.295127 0
72.9923 -0.389634 0
73.1981 -0.392018 0
73.3975 -0.36982 0
73.2239 -0.258413 0
73.2095 -0.497632 0
73.5847 -0.395523 0
73.4122 -0.613747 0
73.4952 -0.217643 0
73.5031 -0.548142 0
73.8614 -0.221789 0
73.6212 -0.664263 0
73.7786 -0.838354 0
74.2645 -0.483291 0
74.0365 -0.71023 0
74.0434 -0.331607 0
74.2993 -0.921207 0
74.148 -0.255408 0
74.0858 -0.937584 0
74.5939 -1.02177 0
74.8205 -0.67572 0
74.9137 -0.81681 0
74.628 -0.855142 0
74.7354 -0.902742 0
74.6827 -0.389137 0
75.0376 -1.00284 0
75.1887 -1.05034 0
75.4006 -0.53804 0
74.9696 -0.473748 0
75.1472 -0.862917 0
75.2672 -0.99653 0
75.1252 -0.164064 0
75.6726 -0.872323 0
75.7134 -0.868271 0
75.6809 -0.29352 0
75.39 -0.42831 0
75.7616 -0.604837 0
75.8445 -0.711752 0
75.4492 -0.0996601 0
75.9006 -0.761118 0
75.9713 -0.55288 0
75.7207 -0.166672 0
75.9764 -0.290753 0
75.6953 0.0352153 0
76.0236 -0.280637 0
75.4602 0.0362919 0
76.0412 -0.186499 0
75.9964 0.142871 0
75.3531 0.100348 0
75.7891 0.455721 0
75.6128 0.504485 0
75.4223 0.320172 0
74.8468 0.316106 0
75.866 0.463987 0
75.7563 0.646933 0
74.8967 0.145584 0
75.4346 0.890576 0
75.1257 0.991484 0
75.3471 0.659378 0
74.6488 0.380736 0
74.5101 0.542034 0
75.0728 1.19759 0
74.2709 0.321054 0
74.6741 1.08903 0
74.5321 1.04755 0
74.4899 1.28028 0
74.1146 0.000856308 0
73.9928 1.06894 0
74.4265 0.848976 0
73.88 0.54802 0
73.6989 0.521921 0
73.8191 1.13359 0
73.5796 1.00593 0
73.7964 0.181315 0
73.4805 0.756579 0
73.4439 0.879056 0
73.4007 0.816117 0
73.383 0.0196442 0
73.4743 0.500117 0
73.0527 0.478385 0
73.2755 0.122817 0
73.2965 0.124731 0
73.113 0.203901 0
73.0128 0.345113 0
73.3854 0.0446266 0
73.026 -0.012044 0
73.0155 -0.0634256 0
73.5105 -0.077822 0
73.1481 -0.400751 0
73.173 -0.0117404 0
73.4364 -0.313822 0
73.4597 -0.513931 0
73.2827 -0.411826 0
73.1365 -0.596456 0
73.5399 -0.213378 0
73.444 -0.720989 0
73.3498 -0.876049 0
73.716 -0.979949 0
73.7252 -0.00815432 0
73.6738 -0.726647 0
73.7311 -1.04838 0
73.644 -0.167688 0
73.8436 -1.11693 0
73.9943 -0.449824 0
73.9454 -1.19551 0
74.0508 -0.165588 0
74.2343 -0.793404 0
74.1732 -1.04228 0
73.8915 -0.0857957 0
74.481 -1.00914 0
74.6176 -0.683465 0
74.2668 -0.638164 0
74.2215 -0.246146 0
74.7359 -0.753973 0
74.2077 -0.117011 0
74.0196 -0.014064 0
74.4905 -0.503067 0
74.8372 -0.542829 0
74.867 -0.563787 0
74.1771 -0.0236881 0
74.69 -0.19264 0
74.7783 -0.0642573 0
74.0152 -0.0068495 0
74.619 0.138583 0
74.7826 0.0973924 0
74.453 0.026394 0
74.1261 0.0242703 0
74.1942 0.0646904 0
74.6331 0.301837 0
73.9297 -0.0038888 0
74.5178 0.44063 0
74.3722 0.426178 0
74.4211 0.485931 0
73.9685 0.013415 0
74.1901 0.337947 0
73.9833 0.290058 0
73.8689 -0.00433653 0
73.9016 0.444365 0
73.7951 0.158387 0
74.0157 0.132451 0
73.9702 0.00141857 0
73.7549 0.271394 0
73.9701 -0.0104413 0
73.8655 -0.0165244 0
73.8887 -0.0204168 0
73.5952 -0.0596498 0
73.5422 -0.18245 0
73.9376 -0.0788187 0
73.8621 -0.368889 0
73.541 -0.366864 0
73.9369 -0.051112 0
73.6093 -0.626742 0
73.7354 -0.867394 0
74.0628 -0.447035 0
73.9138 -0.00481162 0
73.9532 -1.1009 0
74.2553 -0.279076 0
74.4124 -0.332194 0
74.0956 -0.974629 0
74.1348 -0.735379 0
74.4188 -1.18556 0
74.0812 -0.0453425 0
74.3234 -1.32335 0
74.6648 -0.793634 0
74.9096 -1.22769 0
73.981 -0.0132873 0
75.3257 -0.679072 0
75.2873 -0.419101 0
73.5896 0.0599787 0
75.4934 -1.18828 0
75.8206 -0.584818 0
74.406 0.328168 0
74.0317 0.123895 0
74.9309 -0.173075 0
75.9486 -0.126894 0
73.739 0.120199 0
75.8779 0.549722 0
76.036 -0.248027 0
76.0495 -0.0229048 0
73.4731 0.624471 0
75.1197 0.885375 0
76.0857 0.851886 0
73.4065 0.105056 0
75.928 1.25906 0
75.839 1.37658 0
75.3361 2.60348 0
72.3165 0.180561 0
76.0699 2.2416 0
74.6173 1.56707 0
73.2262 0.731682 0
73.2143 1.53827 0
75.9441 2.5971 0
75.3981 3.14444 0
72.6375 0.313436 0
75.2833 3.65694 0
71.319 0.00479261 0
71.3136 -0.000925442 0
71.3091 -0.00931928 0
71.3073 -3.75401e-05 0
71.2938 -0.00280492 0
71.289 -0.0105111 0
71.2906 -0.00783588 0
71.2872 -0.00219279 0
71.2807 -0.0036304 0
71.2823 -0.0115056 0
71.2852 -0.00604554 0
71.279 -0.00614924 0
71.2851 -0.0107794 0
71.2902 -0.00790894 0
71.293 -0.0043337 0
71.2952 -0.00656846 0
71.3085 -0.00581029 0
71.3138 -0.00294343 0
71.319 -0.00882373 0
71.3436 0.00266674 0
71.3513 0.0063281 0
71.3887 0.0154438 0
71.3615 0.00164954 0
71.4078 0.0107243 0
71.4568 0.0219102 0
71.421 0.0155761 0
71.4843 0.0367236 0
71.5095 0.0227774 0
71.5585 0.0568846 0
71.4995 0.0316786 0
71.598 0.0363272 0
71.6669 0.0878444 0
71.6027 0.0412327 0
71.7772 0.121292 0
71.7897 0.118829 0
71.8326 0.0844888 0
71.728 0.0595959 0
71.8533 0.101818 0
71.9764 0.0933131 0
71.8901 0.0721375 0
72.1185 0.21399 0
72.1024 0.0884697 0
72.1961 0.130708 0
72.0784 0.116725 0
72.2368 0.196515 0
72.4433 0.225886 0
72.5271 0.141266 0
72.4064 0.224029 0
72.6193 0.261012 0
72.6442 0.294528 0
72.8551 0.146185 0
72.7773 0.196151 0
72.9198 0.265097 0
73.0738 0.396407 0
73.117 0.183069 0
73.1729 0.284858 0
73.2791 0.408313 0
73.3881 0.235216 0
73.1963 0.301861 0
73.473 0.437844 0
73.4838 0.41237 0
73.5571 0.232845 0
73.6897 0.154171 0
73.752 0.337899 0
73.2797 0.136832 0
73.8764 0.37769 0
74.1128 0.383256 0
73.9907 0.350695 0
73.8885 0.217363 0
74.1829 0.360976 0
74.2326 0.305742 0
74.2961 0.0893743 0
74.1089 0.299723 0
74.3467 0.249264 0
74.4222 0.234603 0
74.1641 0.0903149 0
74.3488 0.166433 0
74.5582 0.186625 0
74.3863 0.133052 0
74.5906 0.149191 0
74.6381 0.0518914 0
74.536 0.0700989 0
74.5047 0.0101672 0
74.6261 0.00598616 0
74.6741 0.026503 0
74.4623 -0.00121399 0
74.6521 -0.0688673 0
74.5663 -0.0328717 0
74.618 -0.0945405 0
74.5574 -0.0261079 0
74.6043 -0.16555 0
74.4776 -0.2984 0
74.3582 -0.0510365 0
74.4662 -0.158392 0
74.393 -0.336814 0
74.3809 -0.232182 0
74.4114 -0.0825173 0
74.3375 -0.319333 0
74.2624 -0.343883 0
74.1712 -0.0660062 0
74.1199 -0.113784 0
74.1269 -0.257846 0
74.097 -0.380313 0
74.1936 -0.191092 0
73.99 -0.309701 0
73.9233 -0.303374 0
73.8527 -0.0372716 0
73.9345 -0.147163 0
73.7857 -0.235018 0
73.785 -0.15504 0
73.9437 -0.0758079 0
73.7435 -0.122691 0
73.6091 -0.0238078 0
73.7371 0.0365809 0
73.7123 -0.0693165 0
73.5676 0.0745384 0
73.5906 0.134496 0
73.7695 -0.0198555 0
73.5288 0.189965 0
73.5465 0.423529 0
73.7061 0.0828726 0
73.5539 0.42637 0
73.7534 0.195181 0
73.624 0.51134 0
73.7506 0.219402 0
73.6084 0.621242 0
73.696 0.783783 0
73.7972 0.193562 0
73.6921 0.759203 0
73.8848 0.990277 0
73.9718 0.237369 0
73.709 0.594296 0
73.8893 0.837244 0
74.0001 1.02764 0
73.9737 0.139023 0
74.0528 0.922492 0
74.3699 1.20323 0
74.3126 0.936983 0
74.2153 0.260346 0
74.5482 0.88828 0
74.1207 0.346829 0
74.1127 0.865679 0
74.5213 1.07554 0
74.8457 1.06871 0
74.8416 1.01185 0
74.1787 0.0222594 0
75.1434 0.960962 0
75.1747 0.841991 0
75.0589 0.461183 0
74.7634 0.184891 0
74.8394 0.0948748 0
75.2044 0.6211 0
74.526 0.235335 0
75.4695 0.352222 0
75.352 0.34355 0
75.1644 0.11898 0
74.6486 0.0187988 0
75.4257 -0.0844492 0
75.4377 -0.322175 0
74.7467 -0.150217 0
74.8564 -0.0465481 0
75.1509 -0.341675 0
75.315 -0.735156 0
74.7706 0.0381218 0
75.1802 -0.856358 0
75.1356 -0.948563 0
74.4719 -0.139422 0
74.7411 -1.33174 0
74.6682 -1.26565 0
74.315 -1.01893 0
74.3419 -0.358602 0
74.4805 -0.385324 0
74.6815 -1.23087 0
74.4768 -0.216279 0
74.2232 -1.56898 0
74.0752 -1.38136 0
74.0684 -1.14418 0
74.1351 -0.136839 0
73.6054 -1.29858 0
73.5852 -1.28291 0
73.8625 -0.587425 0
73.4788 -0.71052 0
73.7607 -0.436476 0
73.4211 -1.05671 0
73.8943 -0.281388 0
73.1467 -0.972842 0
73.085 -0.808936 0
73.8295 -0.208136 0
73.1037 -0.454668 0
72.809 -0.234075 0
72.9596 -0.379399 0
73.458 -0.0430842 0
72.7637 0.177615 0
72.7909 0.281589 0
73.3079 -0.313243 0
73.2109 0.328353 0
73.3725 -0.0844181 0
72.9441 0.70962 0
73.4764 0.0379922 0
72.9894 0.92232 0
73.0885 0.994569 0
73.4906 0.00491403 0
73.1691 0.89317 0
73.4057 1.4547 0
73.5689 1.56561 0
73.6212 0.280639 0
73.6874 1.63573 0
73.8134 1.85754 0
73.296 0.621576 0
74.0841 1.15958 0
73.7825 0.321931 0
74.1154 1.94216 0
73.8543 0.12069 0
74.3639 1.87117 0
74.5373 1.8531 0
73.7166 0.0662661 0
74.3713 1.51073 0
74.973 1.72768 0
75.2341 1.61062 0
74.0938 0.286987 0
75.022 1.52259 0
75.3762 1.48275 0
74.5671 1.25484 0
75.2395 0.831004 0
74.2313 0.21711 0
75.1313 1.37181 0
74.3159 0.0878251 0
75.6298 1.25986 0
75.7104 1.01622 0
74.1764 0.0675563 0
75.4375 0.64267 0
75.7755 0.626999 0
75.8673 0.433136 0
74.5004 0.0133704 0
75.8594 0.199903 0
75.8866 0.126513 0
74.6428 -0.0262907 0
75.8365 0.0483583 0
75.3707 -0.195146 0
74.784 0.144067 0
74.59 0.171112 0
75.8011 -0.167966 0
75.7246 -0.377995 0
75.8352 -0.510838 0
74.3902 0.00455754 0
75.5435 -0.632605 0
75.7549 -0.857702 0
74.4698 -0.0305742 0
75.4754 -0.620261 0
75.7282 -1.11478 0
75.1453 -0.865937 0
74.5053 -0.296969 0
75.6737 -1.26952 0
75.6331 -1.44913 0
75.1342 -0.507919 0
74.8234 -1.59714 0
73.7648 -1.36947 0
75.5975 -1.49464 0
73.8276 -0.191431 0
75.5509 -1.97197 0
74.7913 4.14508 0
75.2171 3.59 0
71.759 1.0707 0
74.765 4.12541 0
73.3825 3.90818 0
74.2328 4.61945 0
72.0465 0.402427 0
73.7006 4.80557 0
73.047 4.82352 0
71.3355 0.554855 0
73.0206 5.11234 0
75.5386 -2.21188 0
73.9815 -0.119648 0
75.4615 -2.40735 0
74.8956 -2.70894 0
74.4649 -2.33764 0
73.5359 -0.142627 0
75.031 -3.05043 0
72.3547 4.76244 0
74.6755 -3.78895 0
73.4502 -0.735544 0
74.5455 -3.68676 0
73.9743 -4.29347 0
70.7183 1.39922 0
73.8047 -4.24356 0
74.3578 -2.22852 0
74.2016 -3.80173 0
73.0116 -2.79654 0
72.2723 -0.451683 0
73.6534 -3.8881 0
73.2486 -4.17367 0
71.9556 5.04222 0
73.2592 -4.20488 0
72.7649 -0.233801 0
72.6939 -4.45355 0
72.3189 -4.88722 0
71.9169 -0.290722 0
71.718 -5.03708 0
71.9826 -3.58772 0
70.714 -0.360881 0
71.1756 -5.14658 0
71.1023 -2.76429 0
71.9599 -2.09117 0
71.5326 -4.3692 0
70.8459 -4.65731 0
72.4064 2.48675 0
70.1834 0.317776 0
71.9278 1.66183 0
71.0695 -0.0303196 0
70.5746 -5.05033 0
71.8117 4.79653 0
70.0617 0.230618 0
71.3516 4.07282 0
70.064 -5.0467 0
70.8084 -0.952525 0
69.6083 -3.60722 0
71.3367 5.48696 0
69.4339 1.26513 0
71.3211 5.4271 0
69.9989 4.70015 0
69.562 0.249508 0
70.4718 4.89201 0
69.9128 -3.72993 0
70.5597 -0.281608 0
69.5448 -5.18429 0
69.6045 -5.0162 0
70.6467 5.23368 0
69.4857 5.13549 0
69.1697 0.0242216 0
70.1149 5.2423 0
68.9391 3.28559 0
69.2208 1.44033 0
68.9608 -5.16662 0
69.4165 -0.610379 0
69.1944 -5.06485 0
68.6385 5.42968 0
68.5921 -4.76291 0
68.9466 -0.580904 0
68.8353 -1.93022 0
67.9139 -4.58972 0
69.6369 -2.35139 0
67.7822 -4.4045 0
68.6952 -0.160751 0
67.2046 -4.25182 0
68.5152 1.82347 0
68.7802 0.275684 0
68.425 4.60709 0
68.4693 0.070286 0
68.1938 5.37789 0
68.1235 5.09508 0
68.2771 0.128057 0
67.6668 4.48323 0
68.1581 0.0916948 0
68.0746 -3.91556 0
68.6997 -0.30359 0
68.8246 3.92221 0
67.8191 0.453983 0
67.4859 4.24659 0
67.156 -4.25894 0
68.7781 -0.131619 0
66.0674 -3.59286 0
67.8372 -0.312917 0
66.58 -3.56287 0
68.1541 1.67532 0
67.7875 0.0618375 0
68.549 -3.10167 0
67.7857 -0.0745374 0
66.1841 -3.36251 0
67.0832 3.85791 0
67.2235 -2.53609 0
67.7959 -0.164578 0
66.4368 -2.83997 0
67.8057 2.07549 0
66.4319 1.42506 0
66.7826 3.35363 0
67.7477 -0.655635 0
66.3359 -3.16315 0
67.7643 0.237418 0
66.6167 4.48542 0
67.72 -1.43423 0
67.7892 -0.0565941 0
66.1419 -2.87309 0
66.553 4.07898 0
67.7965 0.442352 0
66.5286 3.22334 0
66.3563 3.17496 0
67.7773 0.217836 0
65.8584 2.87724 0
65.5488 -2.52104 0
67.7944 -0.223009 0
65.3004 -2.54803 0
67.0443 -1.13367 0
67.8037 -0.152439 0
65.0179 -1.69182 0
65.7867 3.56821 0
67.7725 0.385326 0
66.7737 2.27534 0
65.4053 -1.46818 0
67.7746 -0.243956 0
64.9108 -1.36969 0
65.0049 2.66142 0
67.777 0.137837 0
65.2836 2.53643 0
65.5355 2.07274 0
67.7931 0.00236675 0
64.963 2.23322 0
65.8492 -0.801451 0
67.7802 -0.37712 0
65.2928 -0.70407 0
64.4297 -0.369163 0
67.4131 -0.544918 0
64.6026 -0.285204 0
67.1737 0.730128 0
67.7838 0.011139 0
66.5297 1.72343 0
64.906 1.80644 0
67.7409 0.00445434 0
64.4919 1.24932 0
67.5985 -0.150199 0
67.7852 -0.0897293 0
64.4858 0.052579 0
64.8407 0.162782 0
67.7985 -0.0794139 0
66.4991 0.330033 0
65.1044 0.547032 0
67.7914 -0.0687906 0
67.2563 -3.46362 0
67.8226 -0.305774 0
67.7748 0.06392 0
67.7623 4.6237 0
68.2432 -4.76473 0
69.9317 -0.533437 0
69.0635 0.610356 0
69.9196 5.53475 0
67.7739 0.147568 0
65.4484 3.42523 0
65.1221 -1.68787 0
67.7522 -0.150204 0
67.8003 -0.386327 0
67.5504 -2.12534 0
67.7988 0.505503 0
67.8259 0.112099 0
67.7976 -0.0390192 0
64.8658 1.60119 0
68.4288 0.294032 0
68.015 1.06599 0
68.2431 -0.827629 0
68.9753 -0.380261 0
71.9277 -0.657307 0
72.024 -4.89409 0
73.2582 4.82529 0
71.8275 0.240265 0
67.7262 1.14701 0
68.6358 5.22444 0
68.0141 -4.34076 0
68.5102 -1.3098 0
67.2601 -0.89273 0
65.69 0.0493027 0
66.629 4.014 0
67.8693 1.29415 0
67.8588 -1.11591 0
65.6166 -2.89354 0
75.3457 -2.74252 0
73.3616 -0.351544 0
73.1776 0.354552 0
76.0122 1.81205 0
67.8418 -0.538074 0
67.7839 -0.0263488 0
67.7573 0.0860092 0
68.2521 0.500916 0
70.5591 0.413998 0
70.4709 2.5008 0
69.5114 -1.10829 0
71.1432 -0.935473 0
69.869 3.09699 0
71.6161 5.12232 0
70.9172 -5.12897 0
70.2139 -1.05865 0
72.4607 0.836838 0
73.3764 2.82819 0
72.2463 -1.50206 0
72.7805 -0.0123731 0
74.451 -0.0868104 0
75.8248 -0.608261 0
75.0524 -1.34718 0
73.7893 0.00654815 0
74.303 0.00955065 0
75.7102 0.961591 0
73.8599 -0.808363 0
73.9649 -0.0650045 0
68.4037 -0.853998 0
68.0493 -0.360142 0
67.9739 0.842695 0
68.3834 0.610872 0
67.9122 0.82946 0
67.7821 0.12727 0
67.7836 -0.07063 0
67.9513 -0.728591 0
73.8093 0.354128 0
74.6378 0.521287 0
74.0888 -0.559744 0
74.1237 -0.0682913 0
66.5815 -0.541175 0
67.8165 -0.144319 0
67.6187 -0.310302 0
67.8129 -0.280333 0
67.7903 0.105645 0
67.7692 0.621719 0
74.6399 1.7799 0
73.9739 0.208059 0
73.864 -0.00604851 0
73.9299 0.409986 0
69.7377 -0.020071 0
69.4062 -1.59252 0
69.9272 1.09685 0
69.1738 0.276917 0
67.67 2.69366 0
67.125 4.91388 0
67.1675 -3.85602 0
68.0385 -1.87279 0
68.2748 -1.22684 0
67.6051 -1.36529 0
67.6884 3.08142 0
67.9305 1.49366 0
73.9858 -0.0937601 0
73.9739 -0.0310785 0
74.5062 0.0180244 0
75.3025 0.429752 0
68.7573 -3.19649 0
69.3741 -3.07299 0
69.1583 2.96454 0
69.4352 5.53825 0
68.4276 -2.30546 0
69.0473 -1.29017 0
68.886 1.96964 0
68.4424 0.984153 0
73.3512 1.42007 0
73.5498 0.107368 0
73.9636 -0.00549971 0
74.8114 -0.0657905 0
67.5222 0.710046 0
67.7938 -0.00558681 0
73.8878 -0.0266691 0
73.9204 -0.239347 0
74.6287 0.490734 0
74.0623 0.0703607 0
68.2722 -0.584743 0
68.0544 -0.847756 0
68.4037 1.1285 0
67.8877 0.483215 0
67.8076 -0.102715 0
67.9225 -0.450845 0
67.7729 0.192611 0
67.7768 0.0666786 0
65.1855 1.34462 0
67.2604 1.09857 0
72.7039 -1.70052 0
74.7115 -3.46251 0
75.6404 3.00016 0
72.6367 1.1976 0
67.1638 -1.33729 0
65.6478 -1.70459 0
73.571 -0.0932775 0
73.0412 -0.57066 0
74.3612 -0.111236 0
73.7212 -1.42951 0
74.5571 -0.871014 0
73.9956 -0.0796658 0
73.4761 -0.906167 0
73.6178 -0.0116254 0
73.9974 0.0238829 0
74.2283 0.1363 0
73.7382 0.479578 0
73.671 0.00957756 0
67.8081 0.0849817 0
67.7283 0.327015 0
66.9187 0.407377 0
65.3701 0.753789 0
67.7959 -0.204009 0
67.7852 -0.139457 0
67.5518 0.205742 0
67.5496 -0.463736 0
75.6424 -1.28799 0
74.0698 -0.894183 0
74.8081 0.716431 0
75.8118 -0.705722 0
67.8204 -0.0416427 0
67.8813 -0.238432 0
67.7674 0.0258813 0
67.898 0.170114 0
74.0923 -0.0496103 0
74.3858 -0.195846 0
73.4346 0.159161 0
73.5052 -0.0429123 0
74.6982 -0.118218 0
75.1412 -0.690074 0
73.0171 -0.116844 0
73.3715 -0.0222174 0
68.0921 -0.57357 0
68.608 -1.21395 0
68.2085 1.06769 0
68.0006 0.861154 0
68.4384 1.8555 0
67.603 1.28442 0
67.9557 -1.19395 0
68.2764 -1.59915 0
74.8973 -0.183658 0
75.6179 0.620818 0
73.9975 -1.05017 0
74.4932 -0.300273 0
67.7539 -0.738342 0
67.8041 -0.883112 0
67.7785 0.713945 0
67.5011 0.91809 0
75.4647 -0.00498706 0
74.743 0.180283 0
73.5464 0.127986 0
73.1813 0.617075 0
71.8739 2.478 0
73.2954 4.24013 0
72.6511 -4.8114 0
72.2435 -1.80415 0
66.0188 -2.05107 0
67.5307 -2.05894 0
71.4748 -1.67118 0
71.7467 -0.592102 0
70.9658 0.275478 0
72.798 1.64765 0
65.6699 3.26804 0
67.0362 1.9013 0
73.7923 -0.0383251 0
74.073 -0.528599 0
73.6988 -0.334566 0
73.7434 -0.0967403 0
73.585 -0.192033 0
73.5081 -0.790376 0
73.8725 0.86473 0
73.2118 0.129472 0
70.6142 0.848772 0
69.5888 0.22213 0
70.1869 -0.191559 0
70.5675 -1.72431 0
74.5376 0.612661 0
74.7014 1.53825 0
73.6408 0.0405361 0
74.0563 -0.293987 0
70.074 -2.1731 0
70.597 -0.995065 0
70.2642 1.63549 0
71.933 3.62159 0
74.7759 0.807385 0
74.4112 0.148608 0
73.7746 0.178587 0
74.3649 1.1994 0
73.4051 -0.0944613 0
73.5316 -0.00679615 0
74.1842 -0.121933 0
74.9798 -0.555626 0
68.7657 0.305927 0
68.6509 0.806489 0
68.8533 -0.624414 0
69.2732 -0.189769 0
69.7099 1.75982 0
68.8019 1.22113 0
68.4875 -1.61635 0
68.0835 -1.6681 0
74.4746 -0.21166 0
74.3278 -0.119602 0
73.9682 0.0480768 0
74.2921 -0.0791803 0
68.7815 2.45607 0
69.0652 1.61404 0
68.4929 -0.466054 0
68.404 -0.17727 0
68.2528 0.179292 0
68.6311 0.544635 0
67.0194 -0.48301 0
67.6592 -0.855642 0
75.4814 -1.81824 0
74.1679 -1.04334 0
74.2167 1.85484 0
76.1234 1.12444 0
67.8286 -0.578996 0
67.8122 -0.0982679 0
67.7582 0.111551 0
67.8201 0.53531 0
67.8568 0.0557791 0
67.8839 0.409818 0
68.0298 -0.220166 0
68.1035 -0.0156369 0
66.268 -0.0190008 0
64.4703 0.31218 0
71.7599 1.84842 0
74.0331 1.42358 0
73.1233 -1.34452 0
73.5488 -2.72085 0
67.6112 1.43461 0
67.393 0.825172 0
67.7923 -0.0298015 0
67.7282 -0.0635409 0
69.2271 4.4464 0
67.9456 2.68224 0
68.9513 -2.49689 0
68.2738 -4.95389 0
67.5229 0.556153 0
67.772 0.243088 0
73.7044 0.663064 0
73.6242 1.72088 0
74.5212 0.276454 0
74.0112 0.00390088 0
73.5348 0.125695 0
73.3858 -0.00638961 0
74.576 -0.0354163 0
75.2017 0.308645 0
74.8854 -1.07137 0
74.9954 0.0308354 0
75.2059 -0.143148 0
75.8118 -0.287173 0
67.6304 0.0648881 0