# vtk DataFile Version 3.0
Unstructured Grid for Triangles
ASCII
DATASET UNSTRUCTURED_GRID
POINTS 29612 DOUBLE
-0.000272397 1.23686e-05 0
-0.000295789 9.5838e-06 0
-0.000277865 -3.1235e-06 0
0.002024 0.0005 0
0.00203975 0.00049875 0
0.00205 0.0005 0
0.00203975 -0.00049875 0
0.002024 -0.0005 0
0.00205 -0.0005 0
0.0020295 0.0004975 0
0.0020295 -0.0004975 0
0.00201925 0.00049625 0
0.00201925 -0.00049625 0
-0.000529747 -0.000479887 0
-0.00055 -0.0005 0
-0.000524 -0.0005 0
-0.000505983 -0.000484325 0
-0.000498 -0.0005 0
-0.000472 -0.0005 0
-0.000483864 -0.000487761 0
-0.000446 -0.0005 0
-0.000459 -0.000484239 0
-0.000429453 -0.000424878 0
-0.000447486 -0.000420717 0
-0.000441829 -0.000436609 0
-0.000512578 -0.000462101 0
-0.000493078 -0.000453594 0
-0.00050706 -0.000439006 0
-0.000419243 -0.000477545 0
-0.000440307 -0.000471837 0
-0.00043691 -0.000486724 0
-0.000516129 -0.000420948 0
-0.000495355 -0.000415432 0
-0.000511646 -0.00040128 0
-0.000394697 -0.000481197 0
-0.000406302 -0.000455143 0
-0.000537257 -0.000388197 0
-0.000531099 -0.000407297 0
-0.000523982 -0.000388328 0
-0.000370063 -0.000472956 0
-0.000368 -0.0005 0
-0.00035308 -0.000485302 0
-0.0005072 -0.00037867 0
-0.000485506 -0.000383975 0
-0.000490949 -0.000359622 0
-0.000337127 -0.000484331 0
-0.000316 -0.0005 0
-0.000326495 -0.00047415 0
-0.00055 -0.00035 0
-0.000531201 -0.000370361 0
-0.000528367 -0.000346817 0
-0.000363898 -0.000448809 0
-0.000383315 -0.000460336 0
-3.26269e-05 -0.000415503 0
-5.99662e-05 -0.000409556 0
-5.46944e-05 -0.000429488 0
-0.000529747 0.000479887 0
-0.00055 0.0005 0
-0.00055 0.000475 0
-0.00055 0.00045 0
-0.000534834 0.000429171 0
-0.000526943 0.000442611 0
-0.000534026 0.000460176 0
-0.000531099 0.000407297 0
-0.000511672 0.000401178 0
-0.000516129 0.000420948 0
-0.000524 0.0005 0
-0.000505983 0.000484325 0
-0.000531201 0.000370361 0
-0.0005072 0.00037867 0
-0.000523982 0.000388328 0
-0.00048341 0.000469132 0
-0.000483679 0.000487539 0
-0.000528367 0.000346817 0
-0.00055 0.000325 0
-0.000525657 0.000328474 0
-0.000498 0.0005 0
-0.000530382 0.0003125 0
-0.000419243 0.000477545 0
-0.000440015 0.00047335 0
-0.000425917 0.000463678 0
-0.000435138 0.000262661 0
-0.000414982 0.000274462 0
-0.000435654 0.000285217 0
-0.000459 0.000484239 0
-0.000436852 0.000487027 0
-0.000446 0.0005 0
-0.000533308 0.000292503 0
-0.00055 0.000275 0
-0.000523377 0.000276953 0
-0.000425282 0.000446352 0
-0.000409368 0.000435728 0
-0.000406302 0.000455143 0
0.002009 0.000495 0
0.001998 0.0005 0
0.00199875 0.00049375 0
0.0019885 0.0004925 0
0.001972 0.0005 0
0.00197825 0.00049125 0
0.001968 0.00049 0
0.00195775 0.00048875 0
0.001946 0.0005 0
0.0019475 0.0004875 0
0.00193725 0.00048625 0
0.00192 0.0005 0
0.001927 0.000485 0
0.00191675 0.00048375 0
0.0019065 0.0004825 0
0.001894 0.0005 0
0.00189625 0.00048125 0
0.001886 0.00048 0
0.001868 0.0005 0
0.00187575 0.00047875 0
0.0018655 0.0004775 0
0.00185515 0.00048575 0
0.001842 0.0005 0
0.001845 0.000475 0
0.00185525 0.00047625 0
0.00182564 0.0004829 0
0.001816 0.0005 0
0.0018245 0.0004725 0
0.00183475 0.00047375 0
0.00181425 0.00047125 0
0.00180295 0.000482657 0
0.00179 0.0005 0
0.00179375 0.00046875 0
0.001804 0.00047 0
0.00178168 0.000480619 0
0.001764 0.0005 0
0.00177325 0.00046625 0
0.0017835 0.0004675 0
0.00176428 0.000476631 0
0.001763 0.000465 0
0.001738 0.0005 0
0.001751 0.000484164 0
0.00175275 0.00046375 0
0.00174025 0.000475632 0
0.001712 0.0005 0
0.00172615 0.000478449 0
0.001722 0.00046 0
0.00173225 0.00046125 0
0.0017015 0.0004575 0
0.00171243 0.00047381 0
0.00169554 0.000479999 0
0.001686 0.0005 0
0.00167507 0.000479751 0
0.00168498 0.000464861 0
0.00166 0.0005 0
0.0016558 0.000471459 0
0.00167135 0.000462887 0
0.001681 0.000455 0
0.0016605 0.0004525 0
0.00167075 0.00045375 0
0.00164059 0.000461599 0
0.0016394 0.000479551 0
0.00162881 0.00046615 0
0.00162975 0.00044875 0
0.00165025 0.00045125 0
0.00164 0.00045 0
0.00161754 0.000458641 0
0.00161722 0.000478101 0
0.00159956 0.000458294 0
0.00160925 0.00044625 0
0.0016195 0.0004475 0
0.00157667 0.000460322 0
0.00158875 0.00044375 0
0.00159194 0.000480155 0
0.001599 0.000445 0
0.0015785 0.0004425 0
0.00155808 0.000456757 0
0.00155647 0.000476701 0
0.00154059 0.000466642 0
0.00153756 0.000450083 0
0.00154839 0.000450446 0
0.00156825 0.00044125 0
0.00151954 0.000480508 0
0.00154052 0.00048477 0
0.00153 0.0005 0
0.00154775 0.00043875 0
0.00152142 0.000456625 0
0.00152821 0.000445753 0
0.0015375 0.0004375 0
0.001504 0.0005 0
0.00149644 0.000485168 0
0.00151787 0.000443178 0
0.00152725 0.00043625 0
0.00150675 0.00043375 0
0.001517 0.000435 0
0.00148119 0.000450887 0
0.00148072 0.000475756 0
0.00146584 0.000463516 0
0.00150008 0.00046396 0
0.00149351 0.00044543 0
0.0015061 0.000446252 0
0.001476 0.00043 0
0.00148625 0.00043125 0
0.00146492 0.000482975 0
0.00144888 0.000473562 0
0.00146676 0.000444259 0
0.00145255 0.000453656 0
0.00145652 0.000438669 0
0.00141401 0.000479821 0
0.001426 0.0005 0
0.0014 0.0005 0
0.00144374 0.000438862 0
0.0014555 0.0004275 0
0.001435 0.000425 0
0.00144525 0.00042625 0
0.00142746 0.000438121 0
0.00141288 0.000443191 0
0.00141707 0.000432778 0
0.0013921 0.000438992 0
0.00140355 0.00045932 0
0.00138302 0.00045922 0
0.00142912 0.000458869 0
0.00140592 0.000430037 0
0.0014145 0.0004225 0
0.00136458 0.00045869 0
0.00137106 0.00044063 0
0.001394 0.00042 0
0.00138259 0.000428915 0
0.00137484 0.000477094 0
0.00139166 0.000478902 0
0.0013586 0.000478984 0
0.00133449 0.000478649 0
0.00134717 0.000461848 0
0.00137256 0.000425134 0
0.00135323 0.000424541 0
0.00136325 0.00041625 0
0.00136122 0.00042876 0
0.00131206 0.000447284 0
0.00133168 0.000456738 0
0.00131773 0.000465243 0
0.00134756 0.000440343 0
0.00132747 0.000436463 0
0.00133483 0.000426786 0
0.00131081 0.00041867 0
0.00132382 0.000422815 0
0.00131507 0.00043122 0
0.00131059 0.000480123 0
0.0013325 0.0004125 0
0.0012915 0.0004075 0
0.0012982 0.000418199 0
0.00128915 0.000426216 0
0.00126366 0.000447574 0
0.00127331 0.000430908 0
0.00128781 0.000444872 0
0.00125336 0.000428376 0
0.00130218 0.000431077 0
0.00127894 0.000416344 0
0.00124774 0.000469608 0
0.00127668 0.000464148 0
0.00126591 0.00048331 0
0.00126722 0.000418415 0
0.00125768 0.000411931 0
0.00124326 0.000413546 0
0.0012505 0.0004025 0
0.00122408 0.000450118 0
0.00120276 0.000447432 0
0.0012139 0.000432235 0
0.00124336 0.000444132 0
0.00123056 0.000427595 0
0.00122977 0.000409049 0
0.0012185 0.000469217 0
0.00122676 0.000485947 0
0.00120525 0.000486094 0
0.00121479 0.000413153 0
0.00119547 0.000424221 0
0.00120249 0.000407448 0
0.00119925 0.00039625 0
0.00119346 0.000406114 0
0.00117479 0.000447279 0
0.00114726 0.000445259 0
0.0011571 0.000427814 0
0.00119443 0.000466611 0
0.00117447 0.000421596 0
0.00118421 0.00040752 0
0.00117409 0.000404437 0
0.00116775 0.000470073 0
0.001179 0.0004855 0
0.00115473 0.000484802 0
0.0011685 0.0003925 0
0.00117875 0.00039375 0
0.00115454 0.000400551 0
0.001148 0.00039 0
0.00115825 0.00039125 0
0.00111703 0.000423398 0
0.00113786 0.000426731 0
0.00112589 0.000443871 0
0.00113234 0.000406671 0
0.00114754 0.000413371 0
0.001106 0.000442326 0
0.00109703 0.000424261 0
0.0011275 0.0003875 0
0.00113775 0.00038875 0
0.00110211 0.000480875 0
0.00108244 0.000471951 0
0.00109312 0.000458413 0
0.00111755 0.000399116 0
0.0010944 0.000392972 0
0.00110415 0.000405876 0
0.00108839 0.000407536 0
0.00106472 0.000476905 0
0.00107274 0.000457868 0
0.00108011 0.000392415 0
0.00106885 0.000404365 0
0.00106625 0.000388708 0
0.00105286 0.000419254 0
0.00105055 0.000395469 0
0.00104215 0.000439764 0
0.00106346 0.000440629 0
0.00100945 0.000451249 0
0.00102825 0.00045614 0
0.00101189 0.000468452 0
0.00107625 0.00038125 0
0.00105575 0.00037875 0
0.001066 0.00038 0
0.00103352 0.000476905 0
0.00101803 0.00048465 0
0.00103685 0.000389398 0
0.0010245 0.00038825 0
0.00103525 0.00037625 0
0.00101092 0.000399779 0
0.00101267 0.000382619 0
0.00101382 0.00042025 0
0.00103187 0.000405286 0
0.00103359 0.000424605 0
0.000987383 0.00045447 0
0.000999411 0.000435161 0
0.0009744 0.000433145 0
0.0010045 0.0003725 0
0.00101475 0.00037375 0
0.000970845 0.000465215 0
0.000952614 0.000467664 0
0.000961768 0.000449944 0
0.00099729 0.000387704 0
0.000978901 0.00039598 0
0.000985823 0.000381492 0
0.000962289 0.000393709 0
0.000974259 0.000381279 0
0.00097375 0.00036875 0
0.000963045 0.000376631 0
0.000958 0.0005 0
0.000932 0.0005 0
0.000947542 0.00048457 0
0.000949675 0.000385245 0
0.000936214 0.000389472 0
0.000940006 0.000374906 0
0.000966411 0.000412573 0
0.000944241 0.000407079 0
0.000903569 0.000424993 0
0.000921701 0.000402409 0
0.000927439 0.000427744 0
0.000889795 0.000409067 0
0.000903071 0.00040248 0
0.000925447 0.000377721 0
0.00093275 0.00036375 0
0.000907708 0.000387127 0
0.000911303 0.000370839 0
0.000911933 0.000455145 0
0.000930678 0.000473279 0
0.000911886 0.000482603 0
0.000887724 0.000388076 0
0.000899595 0.000375116 0
0.000902 0.00036 0
0.000889241 0.00036954 0
0.000836977 0.000459472 0
0.000836223 0.000483578 0
0.000820467 0.000474142 0
0.000871227 0.000403557 0
0.000861 0.000355 0
0.000868368 0.000365714 0
0.00085484 0.00036588 0
0.000847735 0.000402845 0
0.000823121 0.000421599 0
0.000826582 0.000398147 0
0.000846943 0.00042454 0
0.000838832 0.000378613 0
0.000835569 0.000363808 0
0.000844098 0.00036291 0
0.00085075 0.00035375 0
0.000851465 0.000477164 0
0.00083025 0.00035125 0
0.000822824 0.000368659 0
0.00081446 0.000357362 0
0.000805884 0.000371794 0
0.000753471 0.000477524 0
0.000738313 0.000473927 0
0.000739102 0.000461526 0
0.00079826 0.000358588 0
0.000788607 0.000376287 0
0.000781733 0.000357987 0
0.000816783 0.000384471 0
0.000807975 0.000404095 0
0.000752138 0.000404775 0
0.000767682 0.000417043 0
0.000749617 0.000421803 0
0.000752903 0.000384008 0
0.000738293 0.000393136 0
0.000772614 0.000394048 0
0.00076863 0.000371878 0
0.000765995 0.000354121 0
0.000779 0.000345 0
0.00071811 0.000453059 0
0.000738069 0.000437967 0
0.000752085 0.000365972 0
0.000728123 0.000374583 0
0.000741845 0.000354664 0
[...]
CELL_DATA 58684
VECTORS velocity DOUBLE
65.2036 0.493503 0
70.9646 7.05898e-05 0
71.0921 0.000857802 0
70.933 0.00870181 0
71.1724 -0.00168942 0
70.9217 0.00792855 0
71.2576 0.0400082 0
67.8311 0.00562508 0
67.8515 0.00187889 0
67.9206 0.00514101 0
67.9775 0.0057346 0
68.0104 -0.0937396 0
67.8815 0.0221378 0
68.0515 -0.0344449 0
67.8715 0.0392351 0
68.1708 -0.0632996 0
67.8267 0.00954238 0
68.4115 -0.0790104 0
67.8792 0.0535389 0
68.7382 -0.0492379 0
67.8111 0.00416056 0
68.3871 -0.185137 0
72.3386 -1.32674 0
67.8011 0.00258769 0
67.8199 0.00225761 0
67.7995 0.00287356 0
67.8543 0.00777672 0
67.8491 0.0017972 0
67.8326 0.00493226 0
67.9224 0.00129761 0
67.8137 0.0211249 0
67.8987 0.00460474 0
67.8161 0.0197104 0
68.1453 0.0664382 0
67.9501 0.606444 0
68.0442 0.0266202 0
67.8081 0.0385609 0
68.2027 0.178526 0
70.8966 -0.00614844 0
70.8753 -0.000615257 0
70.846 0.0178399 0
70.8406 0.00205462 0
70.8038 -0.00102837 0
70.7752 0.0140335 0
70.7682 0.0123558 0
70.7555 -0.00412313 0
70.7295 -0.00322876 0
70.713 0.010104 0
70.7079 -0.00305276 0
70.678 -0.00267682 0
70.6691 0.00130153 0
70.6636 -0.00908639 0
70.6557 -0.0180032 0
70.6408 -0.00640864 0
70.6461 -0.0227664 0
70.641 -0.0264048 0
70.6281 -0.006797 0
70.6587 -0.0492493 0
70.653 -0.0559125 0
70.6493 -0.0428796 0
70.6647 -0.00652543 0
70.6956 -0.098216 0
70.7013 -0.0778095 0
70.7557 -0.0107009 0
70.7881 -0.13883 0
70.7838 -0.151283 0
70.8183 -0.116004 0
70.8664 -0.0104375 0
70.893 -0.199654 0
70.9401 -0.140566 0
70.9982 -0.013224 0
71.0493 -0.247083 0
71.0944 -0.19182 0
71.2049 -0.322891 0
71.2304 -0.0101787 0
71.2971 -0.254761 0
71.3642 -0.171426 0
71.4796 -0.0208956 0
71.5487 -0.380918 0
71.8153 -0.293236 0
71.5839 -0.312644 0
71.8261 -0.017896 0
71.948 -0.222528 0
71.8592 -0.402867 0
72.2945 -0.254502 0
72.1776 -0.331211 0
72.1854 -0.4487 0
72.3615 -0.549108 0
72.6509 -0.33217 0
72.8634 -0.444989 0
72.5131 -0.410594 0
72.7569 -0.558078 0
72.9854 -0.395503 0
72.9576 -0.419875 0
73.0656 -0.546326 0
73.4432 -0.431986 0
73.2128 -0.394576 0
73.3407 -0.511788 0
73.5277 -0.526877 0
73.5889 -0.357389 0
73.792 -0.267366 0
73.6178 -0.368587 0
73.8185 -0.0710616 0
73.8523 -0.295023 0
74.0036 -0.22675 0
73.9421 -0.255388 0
73.9502 -0.036243 0
74.025 -0.192067 0
74.1196 -0.135952 0
74.1075 0.086311 0
74.0898 0.0135258 0
74.0732 -0.0297217 0
74.2085 0.120562 0
74.098 0.129914 0
74.1562 0.210891 0
74.1047 0.157524 0
73.9293 0.0213366 0
74.2753 0.317065 0
74.2297 0.461216 0
74.0637 0.471004 0
73.8729 0.44531 0
73.9426 0.299915 0
74.0781 0.622595 0
73.7096 0.456273 0
73.8947 0.756835 0
73.7392 0.261735 0
73.7993 0.656504 0
73.4539 0.242094 0
73.6777 0.79006 0
73.5532 0.951066 0
73.1455 0.465291 0
73.3215 0.740556 0
73.3148 0.335088 0
73.1075 0.878705 0
73.2301 0.249682 0
73.2777 0.947154 0
72.8806 0.847617 0
72.8054 0.508 0
72.7831 0.553006 0
72.9067 0.7081 0
72.7932 0.699488 0
72.9174 0.265423 0
72.6442 0.657977 0
72.5678 0.623861 0
72.6176 0.2148 0
72.777 0.254982 0
72.6126 0.482841 0
72.5978 0.502829 0
72.7277 0.0690432 0
72.5037 0.277021 0
72.483 0.201708 0
72.7243 -0.025484 0
72.7103 0.100812 0
72.5321 0.0780396 0
72.552 0.049568 0
72.7187 0.00500973 0
72.5409 -0.00665528 0
72.6682 -0.177302 0
72.8913 -0.197892 0
72.7343 -0.200369 0
73.0044 -0.274535 0
72.7689 -0.335488 0
73.0299 -0.0944972 0
72.7883 -0.335134 0
73.0271 -0.414301 0
73.1534 -0.117532 0
73.2531 -0.539759 0
73.3735 -0.450791 0
73.3573 -0.227234 0
73.4506 -0.135804 0
73.2472 -0.550152 0
73.3748 -0.614881 0
73.4237 -0.0680833 0
73.5874 -0.481985 0
73.7295 -0.436833 0
73.5433 -0.287146 0
73.5776 -0.115336 0
73.5963 -0.111623 0
73.8041 -0.469492 0
73.5992 -0.0103155 0
73.9281 -0.257308 0
73.9517 -0.0845866 0
73.9619 -0.111893 0
73.5531 0.000737995 0
73.9838 0.122324 0
73.9051 0.029534 0
73.7605 0.202392 0
73.6943 0.322258 0
74.0577 0.238353 0
73.9719 0.330794 0
73.5293 0.0532969 0
73.9184 0.454257 0
73.8891 0.589507 0
73.8282 0.557882 0
73.1608 0.112831 0
73.6791 0.444985 0
73.5573 0.790139 0
73.2202 0.512054 0
73.3504 0.421429 0
73.393 0.853665 0
73.442 0.860107 0
73.1729 0.0986014 0
73.1882 0.930177 0
73.0786 0.796179 0
72.741 0.0312996 0
72.8861 0.743576 0
73.1177 0.523772 0
72.713 0.214254 0
72.6575 0.2088 0
72.7795 0.53715 0
72.687 0.685696 0
72.7081 0.0285839 0
72.4113 0.298547 0
72.478 0.539741 0
72.2546 0.103027 0
72.6921 -0.00983631 0
72.5056 -0.0234715 0
72.2694 -0.038327 0
72.67 -0.0476083 0
72.2337 -0.155489 0
72.5458 -0.279272 0
72.2507 -0.183454 0
72.7587 -0.278544 0
72.2946 -0.576925 0
72.2713 -0.641396 0
72.7757 -0.134823 0
72.3301 -0.82345 0
72.5967 -1.13143 0
72.668 -0.818961 0
72.8183 -0.560098 0
72.5958 -1.41958 0
73.0082 -0.555019 0
73.3019 -0.0901415 0
72.6121 -1.06386 0
72.7669 -1.50371 0
72.9916 -1.69207 0
73.3041 -0.495516 0
73.2401 -1.49389 0
73.5456 -1.70973 0
73.4488 -0.158866 0
73.8166 -1.6545 0
73.6509 -1.90991 0
73.4609 -1.32069 0
73.6142 -0.574753 0
73.7433 -0.672105 0
73.9301 -1.87917 0
73.8385 -0.00669548 0
74.137 -1.99832 0
74.3763 -1.77563 0
74.288 -1.93197 0
74.0955 -0.330297 0
74.3649 -1.38401 0
74.7657 -1.26234 0
74.0805 -0.00436632 0
74.8831 -1.46761 0
74.9622 -1.03206 0
74.5281 -0.891837 0
74.2359 -0.360759 0
75.0143 -1.20034 0
74.4278 -0.421067 0
74.2717 -0.0284976 0
74.8226 -0.729567 0
75.1673 -0.826049 0
75.2356 -0.700139 0
74.4106 -0.106117 0
75.0551 -0.412376 0
75.2509 -0.529519 0
74.3786 -0.00794162 0
75.2248 -0.368371 0
75.2208 -0.209045 0
75.0504 -0.152818 0
74.3219 0.00558205 0
75.1888 -0.0594462 0
74.8355 0.0675677 0
74.9857 0.125609 0
75.1415 -0.0405523 0
75.0917 0.0134551 0
75.2079 0.0563778 0
74.4659 0.157418 0
75.2051 0.0427204 0
75.1517 0.168678 0
75.2619 0.141208 0
74.3936 0.0445253 0
75.3695 0.333131 0
75.3455 0.441371 0
73.9244 0.0881611 0
75.4476 0.152641 0
75.5974 0.365108 0
74.6525 0.647832 0
74.3755 0.321343 0
75.1434 0.428063 0
75.6906 0.586326 0
74.0781 0.163483 0
75.7063 0.951203 0
75.7382 0.490858 0
75.7588 0.601952 0
73.8054 0.712258 0
75.171 1.1683 0
75.8829 1.1296 0
73.7633 0.126123 0
75.791 1.38097 0
75.713 1.5084 0
75.4476 2.44137 0
72.7566 0.190484 0
76.0284 2.10348 0
74.7931 1.64829 0
73.5849 0.793165 0
73.5752 1.5545 0
75.9686 2.3741 0
75.6079 2.89855 0
73.0627 0.324413 0
75.5612 3.28346 0
71.2848 0.021528 0
71.3209 0.00171015 0
71.4255 0.046271 0
71.4322 0.0536064 0
71.4762 0.00237811 0
71.6003 0.0576857 0
71.6068 0.0780364 0
71.6197 0.0618264 0
71.6724 0.00616009 0
71.7587 0.0904769 0
71.759 0.0724331 0
71.786 0.00702702 0
71.8981 0.0991403 0
71.8922 0.105309 0
71.8992 0.0750476 0
71.934 0.0113617 0
72.0043 0.11571 0
72.0005 0.0912927 0
72.0231 0.0124228 0
72.1226 0.127424 0
72.1135 0.114861 0
72.1854 0.131654 0
72.1162 0.0662653 0
72.2067 0.0679969 0
72.2787 0.0993433 0
72.1954 0.0602697 0
72.2736 0.0737787 0
72.2833 0.05237 0
72.2918 0.0618643 0
72.2476 0.0441443 0
72.2911 0.0293453 0
72.2892 0.0278918 0
72.2763 0.0244478 0
72.2673 -0.0114252 0
72.2661 -0.0275011 0
72.2546 -0.0206347 0
72.2732 0.00248074 0
72.249 -0.041049 0
72.2125 -0.0516757 0
72.2316 -0.0273659 0
72.1585 -0.129773 0
72.159 -0.0624787 0
72.13 -0.0905748 0
72.1624 -0.0667308 0
72.1176 -0.138682 0
72.0266 -0.165204 0
71.9849 -0.0966146 0
72.0389 -0.15561 0
71.9543 -0.181349 0
71.9511 -0.2046 0
71.8847 -0.0992233 0
71.9068 -0.135528 0
71.855 -0.172388 0
71.8093 -0.231501 0
71.8226 -0.0991946 0
71.7932 -0.161847 0
71.77 -0.203588 0
71.8065 -0.0647927 0
71.8231 -0.129088 0
71.7614 -0.166058 0
71.7709 -0.140227 0
71.8104 -0.0453497 0
71.8033 -0.0235568 0
71.8248 -0.0307991 0
71.8061 -0.0463039 0
71.8233 -0.00860586 0
71.9004 0.0853601 0
71.878 0.0328506 0
71.8671 0.00698184 0
71.9578 0.139797 0
71.9874 0.125052 0
72.2167 0.137464 0
71.972 0.125293 0
72.1154 0.232449 0
72.2035 0.305474 0
72.081 0.0468105 0
72.2203 0.228774 0
72.4148 0.422647 0
72.3071 0.185549 0
72.494 0.370012 0
72.7231 0.51717 0
72.6288 0.373582 0
72.9049 0.144823 0
72.835 0.467985 0
72.959 0.538124 0
73.0546 0.140166 0
73.1328 0.600924 0
72.9644 0.429941 0
73.3793 0.458666 0
73.1085 0.316574 0
73.414 0.630591 0
73.8341 0.635735 0
73.6757 0.14185 0
73.6004 0.457704 0
74.0094 0.614467 0
73.8815 0.373538 0
73.5945 0.179754 0
74.1204 0.457878 0
74.2344 0.362483 0
73.9847 0.0561068 0
74.1691 0.0726934 0
74.3662 0.135455 0
74.4368 0.236241 0
74.0656 0.187963 0
74.5255 0.0722667 0
74.5507 -0.0557527 0
74.1924 -0.0872251 0
74.3684 -0.0416737 0
74.5472 -0.3079 0
74.4762 -0.32051 0
74.1592 -0.0193301 0
74.4867 -0.460108 0
74.5234 -0.623203 0
74.0725 -0.258234 0
74.3915 -0.450614 0
74.2851 -0.890089 0
74.2205 -0.713964 0
74.1351 -0.134048 0
74.2256 -0.911832 0
73.9423 -1.21786 0
73.8522 -0.281406 0
73.9497 -0.958156 0
73.6339 -0.396825 0
73.7173 -0.976472 0
73.7005 -0.515492 0
73.6483 -1.30137 0
73.3963 -1.18636 0
73.411 -0.283203 0
73.4389 -1.15428 0
73.1049 -1.18022 0
73.0919 -0.20395 0
73.4849 -0.95451 0
73.1231 -0.881958 0
72.9388 -0.993007 0
73.1038 -0.14988 0
72.8845 -0.776458 0
72.6216 -0.764783 0
72.6899 -0.505579 0
72.848 -0.134334 0
72.5739 -0.309335 0
72.9461 -0.238623 0
72.8592 -0.726723 0
72.5645 -0.493047 0
72.435 -0.230966 0
72.4557 -0.103307 0
72.8832 -0.00935041 0
72.4329 0.158125 0
72.423 0.226649 0
72.5872 0.368667 0
72.7355 0.159933 0
72.8281 0.237715 0
72.5211 0.381052 0
72.7187 -0.0198525 0
72.6155 0.655302 0
72.6562 0.638963 0
72.7965 0.63058 0
72.8755 0.153165 0
72.7963 0.787782 0
73.0798 1.09841 0
73.0146 0.335253 0
72.9495 0.338499 0
73.0648 0.835997 0
73.3537 1.14058 0
72.8685 0.173677 0
73.449 1.22356 0
73.522 1.11717 0
73.2117 0.166593 0
73.81 1.13369 0
73.881 1.0517 0
73.8629 0.684933 0
73.4256 0.299172 0
73.4517 0.38152 0
73.7823 0.918354 0
73.3173 0.266126 0
74.095 0.971623 0
74.1662 0.779926 0
73.9633 0.516195 0
73.4464 0.0924806 0
74.273 0.480849 0
74.2628 0.39721 0
73.8542 0.290011 0
73.9386 0.196713 0
73.7378 0.205687 0
74.2295 0.266151 0
73.6146 0.18033 0
74.2096 0.0430079 0
74.2118 -0.0104893 0
73.5347 0.100481 0
74.0068 -0.0954269 0
73.9451 -0.25742 0
73.9965 -0.218232 0
73.5027 0.025168 0
73.6663 -0.358529 0
73.6151 -0.439359 0
73.853 -0.00287782 0
73.573 -0.164369 0
73.6198 0.0239837 0
73.3499 -0.4533 0
73.4051 0.011142 0
73.285 -0.322613 0
73.3123 -0.209757 0
73.4437 0.00518847 0
73.4 -0.116257 0
72.9821 0.0339083 0
72.9227 0.150606 0
73.3645 0.0965739 0
72.9066 0.330509 0
72.9444 0.418686 0
73.3967 0.0109084 0
73.2252 0.538954 0
73.388 0.15292 0
72.977 0.713217 0
73.4228 0.0668546 0
73.0107 0.958183 0
73.0884 1.08726 0
73.376 0.0319633 0
73.3155 0.996271 0
73.4122 1.62315 0
73.6809 1.70501 0
73.5297 0.239037 0
73.5763 1.62111 0
73.9568 2.07694 0
73.4094 0.909718 0
74.3778 1.33622 0
73.6952 0.240053 0
73.8455 1.74146 0
73.8643 0.108267 0
74.494 2.26182 0
74.6333 2.10711 0
73.7052 0.0769175 0
74.6697 1.64371 0
75.0493 1.99454 0
75.5051 1.94635 0
74.359 0.147739 0
75.783 1.8514 0
75.9214 1.61213 0
74.6732 0.220291 0
76.0492 1.76364 0
75.6529 0.684626 0
74.4519 0.5093 0
74.2039 0.341846 0
76.3715 1.49183 0
76.3346 0.784767 0
76.8263 0.795948 0
74.3058 0.0023091 0
76.4248 0.230131 0
76.9833 0.0136093 0
74.5258 0.0291974 0
76.1685 0.179927 0
77.0867 -0.560765 0
76.0485 -0.43768 0
74.8009 -0.0757766 0
77.018 -0.902923 0
76.9854 -1.23613 0
75.5931 0.0602914 0
75.8306 -1.58014 0
74.5192 -1.47201 0
76.8117 -1.35932 0
74.3553 -0.172692 0
76.8229 -2.10797 0
75.1605 3.76968 0
75.5204 3.26047 0
72.2347 1.05941 0
75.1389 3.79057 0
73.8416 3.68521 0
74.7008 4.2418 0
72.5097 0.410624 0
74.2243 4.46276 0
73.6019 4.54411 0
71.8402 0.546731 0
73.6103 4.7735 0
76.7858 -2.45493 0
74.4383 -0.0881602 0
76.6472 -2.72902 0
75.8968 -3.09727 0
75.4151 -2.62323 0
74.1253 -0.148542 0
76.0263 -3.54363 0
72.9037 4.53259 0
75.5287 -4.40276 0
74.1428 -0.789252 0
75.3637 -4.25769 0
74.6787 -4.93155 0
71.234 1.35313 0
74.4697 -4.83752 0
75.2846 -2.49609 0
74.9373 -4.35147 0
73.6837 -3.1773 0
72.9364 -0.510788 0
74.3228 -4.42977 0
73.8327 -4.70627 0
72.5472 4.79785 0
73.8496 -4.76206 0
73.4395 -0.262257 0
73.2101 -4.98229 0
72.7631 -5.44197 0
72.5664 -0.334977 0
72.0774 -5.54548 0
72.4765 -4.02641 0
71.2551 -0.408531 0
71.4527 -5.63159 0
71.5575 -3.08894 0
72.5631 -2.38582 0
71.9167 -4.83365 0
71.1415 -5.08244 0
72.8642 2.41085 0
70.7177 0.303999 0
72.3981 1.6292 0
71.6392 -0.0366734 0
70.7905 -5.46368 0
72.3966 4.58297 0
70.5956 0.218731 0
71.8788 3.91306 0
70.2276 -5.42048 0
71.3424 -1.08076 0
69.7809 -3.85211 0
71.9717 5.24066 0
69.9217 1.19594 0
71.9509 5.19158 0
70.5116 4.53781 0
70.0832 0.237702 0
71.0401 4.70877 0
70.1348 -4.06009 0
71.0755 -0.316588 0
69.67 -5.53585 0
69.7302 -5.34192 0
71.2306 5.03453 0
69.9958 4.96873 0
69.6713 0.0151911 0
70.6758 5.05509 0
69.3414 3.15385 0
69.6841 1.36165 0
69.0332 -5.47615 0
69.7683 -0.651635 0
69.2855 -5.37519 0
69.1582 5.27516 0
68.6339 -5.02228 0
69.2267 -0.593637 0
68.9679 -1.96004 0
67.9044 -4.76591 0
69.8774 -2.51525 0
67.7601 -4.57457 0
68.9369 -0.147597 0
67.1433 -4.37257 0
68.8791 1.71875 0
69.254 0.253543 0
68.8788 4.46258 0
68.8722 0.0577697 0
68.6931 5.22927 0
68.5761 4.96833 0
68.6452 0.11047 0
68.0382 4.36876 0
68.482 0.0806409 0
68.0698 -4.06775 0
68.9417 -0.288861 0
69.2392 3.78438 0
67.8663 0.225841 0
67.833 4.15372 0
67.0887 -4.37191 0
69.03 -0.129486 0
65.9494 -3.62862 0
67.8046 0.0633545 0
66.467 -3.60983 0
68.4083 1.58115 0
67.7866 0.0367368 0
68.5859 -3.20148 0
67.796 0.00712665 0
66.062 -3.38134 0
67.3676 3.78073 0
67.1177 -2.50523 0
67.8115 0.0327952 0
66.3026 -2.82415 0
67.9859 1.99983 0
66.4093 1.4675 0
66.9988 3.28533 0
67.6585 -0.245913 0
66.2151 -3.17022 0
67.7745 0.0921042 0
66.9455 4.40522 0
67.6275 -1.23192 0
67.79 -0.00224301 0
65.9931 -2.85254 0
66.841 4.01419 0
67.7972 0.256494 0
66.6853 3.17813 0
66.534 3.14056 0
67.7561 0.112027 0
65.9744 2.85295 0
65.4142 -2.49424 0
67.7864 0.0380975 0
65.1641 -2.51474 0
66.8789 -0.956956 0
67.7781 0.0191171 0
64.8834 -1.6287 0
65.9654 3.5351 0
67.7667 0.275278 0
66.8239 2.26104 0
65.2555 -1.39825 0
67.7148 0.0650071 0
64.7765 -1.30234 0
65.1149 2.67009 0
67.7273 0.141138 0
65.3699 2.54047 0
65.5959 2.08882 0
67.7801 0.0387068 0
65.0268 2.25452 0
65.6836 -0.688014 0
67.6933 0.0280691 0
65.1559 -0.611558 0
64.3353 -0.297769 0
67.2688 -0.287619 0
64.5085 -0.208772 0
67.0966 0.845366 0
67.7214 0.0921391 0
66.5372 1.74916 0
64.9311 1.84474 0
67.6566 0.156077 0
64.4954 1.30461 0
67.4963 0.11449 0
67.7806 0.00804934 0
64.4134 0.124442 0
64.7581 0.237847 0
67.7395 0.0672636 0
66.3782 0.455095 0
65.0356 0.62051 0
67.7567 0.0383032 0
67.173 -3.52248 0
67.8486 0.0617664 0
67.7922 0.0373566 0
68.1633 4.51933 0
68.2583 -4.99611 0
70.3665 -0.589003 0
69.5574 0.568029 0
70.5097 5.34588 0
67.7387 0.108906 0
65.6177 3.40256 0
64.9783 -1.61926 0
67.7996 0.017409 0
67.8167 0.0504361 0
67.4511 -2.05122 0
67.8722 0.269371 0
67.7941 0.0532574 0
67.7267 0.0931022 0
64.8625 1.64519 0
68.837 0.270475 0
68.2217 0.986797 0
68.3232 -0.672738 0
69.2644 -0.391198 0
72.5825 -0.757491 0
72.4227 -5.41423 0
73.8201 4.52026 0
72.3071 0.241429 0
67.7934 1.11772 0
69.1444 5.07921 0
68.006 -4.51505 0
68.6052 -1.23102 0
67.1049 -0.649788 0
65.558 0.141187 0
66.8979 3.95636 0
67.9978 1.25058 0
67.7849 -0.843835 0
65.4692 -2.87131 0
76.4744 -3.17505 0
73.9997 -0.367844 0
73.541 0.39294 0
75.9255 1.74129 0
67.8478 -0.0889355 0
67.8268 0.000952865 0
67.8388 0.00459893 0
68.5998 0.457775 0
71.0911 0.4023 0
70.9706 2.40329 0
69.8392 -1.19139 0
71.718 -1.07624 0
70.3507 2.96685 0
72.2229 4.88165 0
71.1728 -5.58654 0
70.6541 -1.17954 0
72.8888 0.853152 0
73.7635 2.71633 0
72.8995 -1.71165 0
73.4367 -0.0191594 0
74.6181 0.0489822 0
76.9095 0.511192 0
75.2908 0.118785 0
74.1355 0.0159063 0
73.8923 0.00476855 0
74.7264 2.25288 0
75.1562 -0.197438 0
74.4408 -0.00252899 0
68.5271 -0.738991 0
68.1629 -0.2426 0
68.1894 0.746718 0
68.7671 0.569104 0
68.0697 0.7134 0
67.8125 0.0265642 0
67.7976 0.0110438 0
67.961 -0.365961 0
74.1274 0.464058 0
74.8255 0.827692 0
74.6852 -0.472742 0
74.4741 -0.0453351 0
66.4118 -0.366463 0
67.7331 0.0632836 0
67.5246 0.0142043 0
67.7676 0.0565625 0
67.7738 0.0667989 0
67.819 0.435198 0
73.169 1.29207 0
73.4653 0.129906 0
74.1716 -0.00290456 0
74.8713 -1.47529 0
70.1519 -0.015259 0
69.6652 -1.67821 0
70.4513 1.05177 0
69.6806 0.259175 0
67.8664 2.62677 0
67.5196 4.80639 0
67.0946 -3.9401 0
67.9912 -1.77065 0
68.3331 -1.09146 0
67.4904 -1.14401 0
67.9336 2.98582 0
68.1051 1.43086 0
74.4638 -0.0071344 0
74.3909 0.0521192 0
74.2898 0.0779752 0
74.657 1.20253 0
68.825 -3.33806 0
69.5381 -3.27727 0
69.5897 2.83461 0
70.002 5.36102 0
68.4527 -2.31733 0
69.2557 -1.31524 0
69.3076 1.86179 0
68.8107 0.918198 0
73.0489 -0.162756 0
73.3647 0.0370219 0
73.6867 -0.0125211 0
73.3546 -1.85602 0
67.4706 0.795031 0
67.7554 0.044485 0
74.2356 -0.0823729 0
74.87 -0.301002 0
73.9441 0.566353 0
73.5796 0.0680862 0
68.4015 -0.471158 0
68.0848 -0.58926 0
68.7455 1.04877 0
68.0662 0.332478 0
67.8088 0.0134312 0
67.981 -0.0962796 0
67.8856 0.0132505 0
67.8063 0.0258406 0
65.1601 1.39114 0
67.2107 1.16786 0
73.3971 -1.93386 0
75.6147 -4.00563 0
75.8172 2.72061 0
73.0494 1.20653 0
67.01 -1.17256 0
65.4895 -1.62452 0
73.5572 0.0382651 0
74.1018 -0.1218 0
73.2818 0.0952881 0
74.2499 0.525773 0
72.4998 -0.980482 0
72.8336 -0.152589 0
72.378 0.248332 0
72.703 -0.00715643 0
73.8603 -0.30503 0
74.0408 -0.923224 0
73.362 0.199721 0
73.3665 0.00533847 0
67.7654 0.0833468 0
67.6723 0.31156 0
66.8086 0.555052 0
65.2923 0.819923 0
67.7051 0.0874605 0
67.7703 0.0257747 0
67.4672 0.373698 0
67.4221 -0.177064 0
76.9973 -0.916848 0
74.7605 -0.846174 0
74.9271 0.981643 0
75.5958 0.303676 0
67.9305 0.00335281 0
67.9642 -0.0165076 0
67.8394 0.00521997 0
68.1193 0.114833 0
73.1845 -0.287199 0
73.0515 -0.776087 0
73.4554 0.0115595 0
73.511 0.0262821 0
73.1022 0.248932 0
73.2789 0.938851 0
73.0589 0.979456 0
72.9823 0.13819 0
68.1739 -0.367972 0
68.7454 -1.15081 0
68.5159 0.981897 0
68.2355 0.779707 0
68.7627 1.75216 0
67.6611 1.27285 0
67.9141 -0.9609 0
68.3027 -1.50781 0
74.9481 0.297638 0
75.0278 1.91219 0
75.2005 -0.0377216 0
74.9904 0.241642 0
67.6713 -0.362043 0
67.7353 -0.517418 0
67.8171 0.603986 0
67.4865 0.970199 0
72.9054 0.976535 0
72.7823 0.130846 0
73.3833 0.110265 0
73.6521 0.685196 0
72.3506 2.40137 0
73.8119 4.00312 0
73.1347 -5.38192 0
72.8879 -2.06047 0
65.8589 -1.98145 0
67.4246 -1.97006 0
72.0465 -1.90705 0
72.3881 -0.679564 0
71.4873 0.27275 0
73.2016 1.64534 0
65.8125 3.23835 0
67.0632 1.90115 0
72.7027 -0.0433145 0
72.4941 -0.44956 0
73.651 0.109733 0
73.5166 0.0462259 0
74.1547 -0.180692 0
74.1847 -0.826496 0
74.1608 0.9975 0
73.5831 0.146873 0
71.1445 0.821347 0
70.1179 0.208693 0
70.653 -0.213125 0
71.0077 -1.93629 0
73.8087 0.694065 0
73.3914 1.32926 0
75.1381 -0.909375 0
74.7922 -0.07234 0
70.3954 -2.37492 0
71.0945 -1.12313 0
70.7776 1.57389 0
72.4448 3.47625 0
72.4996 -0.047124 0
72.7459 -0.0389284 0
73.5226 0.0928518 0
73.9754 -0.0902448 0
72.8732 0.140637 0
72.75 -0.00382317 0
73.4297 0.118483 0
73.3126 0.715957 0
69.2269 0.285309 0
69.0771 0.750156 0
69.0894 -0.604439 0
69.6052 -0.201375 0
70.1921 1.67689 0
69.2081 1.13514 0
68.5597 -1.57383 0
68.0523 -1.54214 0
74.6733 -0.0162195 0
74.5751 -0.0185642 0
74.31 0.166398 0
74.7025 0.26875 0
69.1756 2.33465 0
69.5047 1.52478 0
68.6897 -0.426505 0
68.5991 -0.1617 0
68.607 0.161203 0
69.078 0.499999 0
66.8595 -0.283945 0
67.548 -0.525101 0
76.7153 -1.85961 0
74.9399 -1.05534 0
74.4765 1.87346 0
75.937 1.25358 0
67.8058 -0.102799 0
67.7872 0.000447898 0
67.7794 0.0545044 0
67.8976 0.311223 0
68.0658 0.0261929 0
68.0914 0.306028 0
68.1349 -0.115473 0
68.2312 -0.00379476 0
66.1246 0.095902 0
64.4091 0.382302 0
72.2409 1.80552 0
74.2934 1.49402 0
73.8364 -1.49139 0
74.3276 -3.09455 0
67.6692 1.43195 0
67.3482 0.907825 0
67.7825 0.0165946 0
67.6436 0.148503 0
69.7009 4.29276 0
68.1816 2.59908 0
69.0661 -2.60259 0
68.2924 -5.20061 0
67.4714 0.625086 0
67.713 0.187171 0
73.3352 0.235251 0
72.9373 0.236091 0
73.9404 -1.82158 0
73.8484 -0.284509 0
73.3628 0.149592 0
73.0831 0.0796773 0
73.0994 0.101991 0
72.7642 0.511605 0
75.2668 0.15058 0
75.1266 0.545026 0
75.3812 0.587553 0
76.5358 1.13898 0
67.5363 0.25233 0
67.0514 -0.820976 0
68.017 0.871145 0
68.184 1.23139 0
68.1864 -1.12976 0