# vtk DataFile Version 3.0
Unstructured Grid for Triangles
ASCII
DATASET UNSTRUCTURED_GRID
POINTS 29612 DOUBLE
-0.000272397 1.23686e-05 0
-0.000295789 9.5838e-06 0
-0.000277865 -3.1235e-06 0
0.002024 0.0005 0
0.00203975 0.00049875 0
0.00205 0.0005 0
0.00203975 -0.00049875 0
0.002024 -0.0005 0
0.00205 -0.0005 0
0.0020295 0.0004975 0
0.0020295 -0.0004975 0
0.00201925 0.00049625 0
0.00201925 -0.00049625 0
-0.000529747 -0.000479887 0
-0.00055 -0.0005 0
-0.000524 -0.0005 0
-0.000505983 -0.000484325 0
-0.000498 -0.0005 0
-0.000472 -0.0005 0
-0.000483864 -0.000487761 0
-0.000446 -0.0005 0
-0.000459 -0.000484239 0
-0.000429453 -0.000424878 0
-0.000447486 -0.000420717 0
-0.000441829 -0.000436609 0
-0.000512578 -0.000462101 0
-0.000493078 -0.000453594 0
-0.00050706 -0.000439006 0
-0.000419243 -0.000477545 0
-0.000440307 -0.000471837 0
-0.00043691 -0.000486724 0
-0.000516129 -0.000420948 0
-0.000495355 -0.000415432 0
-0.000511646 -0.00040128 0
-0.000394697 -0.000481197 0
-0.000406302 -0.000455143 0
-0.000537257 -0.000388197 0
-0.000531099 -0.000407297 0
-0.000523982 -0.000388328 0
-0.000370063 -0.000472956 0
-0.000368 -0.0005 0
-0.00035308 -0.000485302 0
-0.0005072 -0.00037867 0
-0.000485506 -0.000383975 0
-0.000490949 -0.000359622 0
-0.000337127 -0.000484331 0
-0.000316 -0.0005 0
-0.000326495 -0.00047415 0
-0.00055 -0.00035 0
-0.000531201 -0.000370361 0
-0.000528367 -0.000346817 0
-0.000363898 -0.000448809 0
-0.000383315 -0.000460336 0
-3.26269e-05 -0.000415503 0
-5.99662e-05 -0.000409556 0
-5.46944e-05 -0.000429488 0
-0.000529747 0.000479887 0
-0.00055 0.0005 0
-0.00055 0.000475 0
-0.00055 0.00045 0
-0.000534834 0.000429171 0
-0.000526943 0.000442611 0
-0.000534026 0.000460176 0
-0.000531099 0.000407297 0
-0.000511672 0.000401178 0
-0.000516129 0.000420948 0
-0.000524 0.0005 0
-0.000505983 0.000484325 0
-0.000531201 0.000370361 0
-0.0005072 0.00037867 0
-0.000523982 0.000388328 0
-0.00048341 0.000469132 0
-0.000483679 0.000487539 0
-0.000528367 0.000346817 0
-0.00055 0.000325 0
-0.000525657 0.000328474 0
-0.000498 0.0005 0
-0.000530382 0.0003125 0
-0.000419243 0.000477545 0
-0.000440015 0.00047335 0
-0.000425917 0.000463678 0
-0.000435138 0.000262661 0
-0.000414982 0.000274462 0
-0.000435654 0.000285217 0
-0.000459 0.000484239 0
-0.000436852 0.000487027 0
-0.000446 0.0005 0
-0.000533308 0.000292503 0
-0.00055 0.000275 0
-0.000523377 0.000276953 0
-0.000425282 0.000446352 0
-0.000409368 0.000435728 0
-0.000406302 0.000455143 0
0.002009 0.000495 0
0.001998 0.0005 0
0.00199875 0.00049375 0
0.0019885 0.0004925 0
0.001972 0.0005 0
0.00197825 0.00049125 0
0.001968 0.00049 0
0.00195775 0.00048875 0
0.001946 0.0005 0
0.0019475 0.0004875 0
0.00193725 0.00048625 0
0.00192 0.0005 0
0.001927 0.000485 0
0.00191675 0.00048375 0
0.0019065 0.0004825 0
0.001894 0.0005 0
0.00189625 0.00048125 0
0.001886 0.00048 0
0.001868 0.0005 0
0.00187575 0.00047875 0
0.0018655 0.0004775 0
0.00185515 0.00048575 0
0.001842 0.0005 0
0.001845 0.000475 0
0.00185525 0.00047625 0
0.00182564 0.0004829 0
0.001816 0.0005 0
0.0018245 0.0004725 0
0.00183475 0.00047375 0
0.00181425 0.00047125 0
0.00180295 0.000482657 0
0.00179 0.0005 0
0.00179375 0.00046875 0
0.001804 0.00047 0
0.00178168 0.000480619 0
0.001764 0.0005 0
0.00177325 0.00046625 0
0.0017835 0.0004675 0
0.00176428 0.000476631 0
0.001763 0.000465 0
0.001738 0.0005 0
0.001751 0.000484164 0
0.00175275 0.00046375 0
0.00174025 0.000475632 0
0.001712 0.0005 0
0.00172615 0.000478449 0
0.001722 0.00046 0
0.00173225 0.00046125 0
0.0017015 0.0004575 0
0.00171243 0.00047381 0
0.00169554 0.000479999 0
0.001686 0.0005 0
0.00167507 0.000479751 0
0.00168498 0.000464861 0
0.00166 0.0005 0
0.0016558 0.000471459 0
0.00167135 0.000462887 0
0.001681 0.000455 0
0.0016605 0.0004525 0
0.00167075 0.00045375 0
0.00164059 0.000461599 0
0.0016394 0.000479551 0
0.00162881 0.00046615 0
0.00162975 0.00044875 0
0.00165025 0.00045125 0
0.00164 0.00045 0
0.00161754 0.000458641 0
0.00161722 0.000478101 0
0.00159956 0.000458294 0
0.00160925 0.00044625 0
0.0016195 0.0004475 0
0.00157667 0.000460322 0
0.00158875 0.00044375 0
0.00159194 0.000480155 0
0.001599 0.000445 0
0.0015785 0.0004425 0
0.00155808 0.000456757 0
0.00155647 0.000476701 0
0.00154059 0.000466642 0
0.00153756 0.000450083 0
0.00154839 0.000450446 0
0.00156825 0.00044125 0
0.00151954 0.000480508 0
0.00154052 0.00048477 0
0.00153 0.0005 0
0.00154775 0.00043875 0
0.00152142 0.000456625 0
0.00152821 0.000445753 0
0.0015375 0.0004375 0
0.001504 0.0005 0
0.00149644 0.000485168 0
0.00151787 0.000443178 0
0.00152725 0.00043625 0
0.00150675 0.00043375 0
0.001517 0.000435 0
0.00148119 0.000450887 0
0.00148072 0.000475756 0
0.00146584 0.000463516 0
0.00150008 0.00046396 0
0.00149351 0.00044543 0
0.0015061 0.000446252 0
0.001476 0.00043 0
0.00148625 0.00043125 0
0.00146492 0.000482975 0
0.00144888 0.000473562 0
0.00146676 0.000444259 0
0.00145255 0.000453656 0
0.00145652 0.000438669 0
0.00141401 0.000479821 0
0.001426 0.0005 0
0.0014 0.0005 0
0.00144374 0.000438862 0
0.0014555 0.0004275 0
0.001435 0.000425 0
0.00144525 0.00042625 0
0.00142746 0.000438121 0
0.00141288 0.000443191 0
0.00141707 0.000432778 0
0.0013921 0.000438992 0
0.00140355 0.00045932 0
0.00138302 0.00045922 0
0.00142912 0.000458869 0
0.00140592 0.000430037 0
0.0014145 0.0004225 0
0.00136458 0.00045869 0
0.00137106 0.00044063 0
0.001394 0.00042 0
0.00138259 0.000428915 0
0.00137484 0.000477094 0
0.00139166 0.000478902 0
0.0013586 0.000478984 0
0.00133449 0.000478649 0
0.00134717 0.000461848 0
0.00137256 0.000425134 0
0.00135323 0.000424541 0
0.00136325 0.00041625 0
0.00136122 0.00042876 0
0.00131206 0.000447284 0
0.00133168 0.000456738 0
0.00131773 0.000465243 0
0.00134756 0.000440343 0
0.00132747 0.000436463 0
0.00133483 0.000426786 0
0.00131081 0.00041867 0
0.00132382 0.000422815 0
0.00131507 0.00043122 0
0.00131059 0.000480123 0
0.0013325 0.0004125 0
0.0012915 0.0004075 0
0.0012982 0.000418199 0
0.00128915 0.000426216 0
0.00126366 0.000447574 0
0.00127331 0.000430908 0
0.00128781 0.000444872 0
0.00125336 0.000428376 0
0.00130218 0.000431077 0
0.00127894 0.000416344 0
0.00124774 0.000469608 0
0.00127668 0.000464148 0
0.00126591 0.00048331 0
0.00126722 0.000418415 0
0.00125768 0.000411931 0
0.00124326 0.000413546 0
0.0012505 0.0004025 0
0.00122408 0.000450118 0
0.00120276 0.000447432 0
0.0012139 0.000432235 0
0.00124336 0.000444132 0
0.00123056 0.000427595 0
0.00122977 0.000409049 0
0.0012185 0.000469217 0
0.00122676 0.000485947 0
0.00120525 0.000486094 0
0.00121479 0.000413153 0
0.00119547 0.000424221 0
0.00120249 0.000407448 0
0.00119925 0.00039625 0
0.00119346 0.000406114 0
0.00117479 0.000447279 0
0.00114726 0.000445259 0
0.0011571 0.000427814 0
0.00119443 0.000466611 0
0.00117447 0.000421596 0
0.00118421 0.00040752 0
0.00117409 0.000404437 0
0.00116775 0.000470073 0
0.001179 0.0004855 0
0.00115473 0.000484802 0
0.0011685 0.0003925 0
0.00117875 0.00039375 0
0.00115454 0.000400551 0
0.001148 0.00039 0
0.00115825 0.00039125 0
0.00111703 0.000423398 0
0.00113786 0.000426731 0
0.00112589 0.000443871 0
0.00113234 0.000406671 0
0.00114754 0.000413371 0
0.001106 0.000442326 0
0.00109703 0.000424261 0
0.0011275 0.0003875 0
0.00113775 0.00038875 0
0.00110211 0.000480875 0
0.00108244 0.000471951 0
0.00109312 0.000458413 0
0.00111755 0.000399116 0
0.0010944 0.000392972 0
0.00110415 0.000405876 0
0.00108839 0.000407536 0
0.00106472 0.000476905 0
0.00107274 0.000457868 0
0.00108011 0.000392415 0
0.00106885 0.000404365 0
0.00106625 0.000388708 0
0.00105286 0.000419254 0
0.00105055 0.000395469 0
0.00104215 0.000439764 0
0.00106346 0.000440629 0
0.00100945 0.000451249 0
0.00102825 0.00045614 0
0.00101189 0.000468452 0
0.00107625 0.00038125 0
0.00105575 0.00037875 0
0.001066 0.00038 0
0.00103352 0.000476905 0
0.00101803 0.00048465 0
0.00103685 0.000389398 0
0.0010245 0.00038825 0
0.00103525 0.00037625 0
0.00101092 0.000399779 0
0.00101267 0.000382619 0
0.00101382 0.00042025 0
0.00103187 0.000405286 0
0.00103359 0.000424605 0
0.000987383 0.00045447 0
0.000999411 0.000435161 0
0.0009744 0.000433145 0
0.0010045 0.0003725 0
0.00101475 0.00037375 0
0.000970845 0.000465215 0
0.000952614 0.000467664 0
0.000961768 0.000449944 0
0.00099729 0.000387704 0
0.000978901 0.00039598 0
0.000985823 0.000381492 0
0.000962289 0.000393709 0
0.000974259 0.000381279 0
0.00097375 0.00036875 0
0.000963045 0.000376631 0
0.000958 0.0005 0
0.000932 0.0005 0
0.000947542 0.00048457 0
0.000949675 0.000385245 0
0.000936214 0.000389472 0
0.000940006 0.000374906 0
0.000966411 0.000412573 0
0.000944241 0.000407079 0
0.000903569 0.000424993 0
0.000921701 0.000402409 0
0.000927439 0.000427744 0
0.000889795 0.000409067 0
0.000903071 0.00040248 0
0.000925447 0.000377721 0
0.00093275 0.00036375 0
0.000907708 0.000387127 0
0.000911303 0.000370839 0
0.000911933 0.000455145 0
0.000930678 0.000473279 0
0.000911886 0.000482603 0
0.000887724 0.000388076 0
0.000899595 0.000375116 0
0.000902 0.00036 0
0.000889241 0.00036954 0
0.000836977 0.000459472 0
0.000836223 0.000483578 0
0.000820467 0.000474142 0
0.000871227 0.000403557 0
0.000861 0.000355 0
0.000868368 0.000365714 0
0.00085484 0.00036588 0
0.000847735 0.000402845 0
0.000823121 0.000421599 0
0.000826582 0.000398147 0
0.000846943 0.00042454 0
0.000838832 0.000378613 0
0.000835569 0.000363808 0
0.000844098 0.00036291 0
0.00085075 0.00035375 0
0.000851465 0.000477164 0
0.00083025 0.00035125 0
0.000822824 0.000368659 0
0.00081446 0.000357362 0
0.000805884 0.000371794 0
0.000753471 0.000477524 0
0.000738313 0.000473927 0
0.000739102 0.000461526 0
0.00079826 0.000358588 0
0.000788607 0.000376287 0
0.000781733 0.000357987 0
0.000816783 0.000384471 0
0.000807975 0.000404095 0
0.000752138 0.000404775 0
0.000767682 0.000417043 0
0.000749617 0.000421803 0
0.000752903 0.000384008 0
0.000738293 0.000393136 0
0.000772614 0.000394048 0
0.00076863 0.000371878 0
0.000765995 0.000354121 0
0.000779 0.000345 0
0.00071811 0.000453059 0
0.000738069 0.000437967 0
0.000752085 0.000365972 0
0.000728123 0.000374583 0
0.000741845 0.000354664 0
[...]
CELL_DATA 58684
VECTORS velocity DOUBLE
65.5015 0.380631 0
71.9183 -0.000133707 0
73.5301 0.000167113 0
71.9884 -0.0059756 0
73.5486 -0.000544738 0
72.0283 -0.0242593 0
73.5697 0.00930392 0
67.8639 0.00727964 0
67.9002 -0.0133823 0
68.0502 0.00648631 0
68.1586 0.00734871 0
68.2107 -0.144258 0
67.9656 -0.0255578 0
68.276 -0.0478968 0
67.9399 -0.0482942 0
68.4347 -0.0725123 0
67.8592 -0.0680895 0
68.7357 -0.0885544 0
67.9843 -0.074517 0
69.1289 -0.0540804 0
67.8448 -0.078302 0
68.7053 -0.212187 0
72.8675 -1.21276 0
67.8078 0.00867385 0
67.836 0.020171 0
67.8053 0.0128514 0
67.8963 0.0473 0
67.8865 0.0096878 0
67.8657 0.0539969 0
68.0078 0.00691705 0
67.8335 0.0646834 0
67.9699 0.0105525 0
67.833 0.0613189 0
68.268 0.0512659 0
68.0259 0.482317 0
68.1647 0.0237653 0
67.8243 0.0840784 0
68.3321 0.148282 0
72.0511 -0.0174021 0
72.0999 -0.00154501 0
72.1948 -0.0490324 0
72.203 -0.0438055 0
72.2554 -0.00349757 0
72.3734 -0.0611509 0
72.3852 -0.0866438 0
72.3985 -0.0657815 0
72.4674 -0.00733563 0
72.5734 -0.118691 0
72.5743 -0.104289 0
72.6354 -0.011993 0
72.7944 -0.147455 0
72.7947 -0.164098 0
72.8096 -0.110495 0
72.8776 -0.0196847 0
72.9965 -0.197331 0
72.9869 -0.153158 0
73.0484 -0.0278784 0
73.2491 -0.264185 0
73.2361 -0.244882 0
73.2463 -0.150136 0
73.3589 -0.0154625 0
73.4497 -0.296757 0
73.499 -0.197085 0
73.6484 -0.0218125 0
73.7404 -0.333082 0
73.744 -0.314118 0
73.8234 -0.235096 0
73.8694 -0.020856 0
73.9261 -0.319092 0
73.993 -0.222035 0
74.0457 -0.0224513 0
74.1072 -0.314736 0
74.1565 -0.234827 0
74.247 -0.34643 0
74.2375 -0.0158878 0
74.2947 -0.204092 0
74.3253 -0.135324 0
74.3508 -0.0198562 0
74.4061 -0.20921 0
74.4691 -0.10549 0
74.4149 -0.150528 0
74.4089 -0.0106594 0
74.4058 -0.0332414 0
74.453 -0.087041 0
74.3642 0.020134 0
74.4191 0.0293524 0
74.4608 -0.0119524 0
74.4293 0.0495209 0
74.2852 0.131577 0
74.2025 0.182009 0
74.3564 0.0959006 0
74.252 0.222805 0
74.0938 0.254847 0
74.1107 0.211806 0
74.0927 0.33898 0
73.7892 0.38125 0
73.9106 0.34968 0
73.8736 0.447918 0
73.6561 0.554998 0
73.562 0.438751 0
73.2738 0.556229 0
73.5835 0.472956 0
73.1672 0.178986 0
73.2973 0.596139 0
73.0217 0.56301 0
73.1625 0.637742 0
72.9143 0.16941 0
73.0142 0.639277 0
72.8399 0.709739 0
72.617 0.345913 0
72.6319 0.389582 0
72.8045 0.574598 0
72.5246 0.65081 0
72.466 0.24015 0
72.2651 0.502376 0
72.342 0.318622 0
72.1184 0.00782157 0
72.2449 0.513515 0
72.1401 0.532998 0
71.9394 0.367935 0
71.9319 0.178074 0
72.0967 0.219562 0
71.9251 0.348834 0
71.8812 0.107048 0
71.8298 0.245795 0
71.9408 0.0747612 0
71.7845 0.192446 0
71.874 0.0243501 0
71.7924 0.17633 0
71.7884 0.0642723 0
71.8965 -0.0322037 0
71.8236 -0.0209162 0
71.875 -0.0114172 0
71.871 -0.126476 0
71.8833 -0.00606165 0
71.8073 -0.0877088 0
71.9465 -0.229541 0
72.0231 -0.147776 0
72.054 -0.201546 0
71.9736 -0.170439 0
71.9921 -0.207134 0
71.976 -0.0810033 0
72.1032 -0.267872 0
72.1593 -0.290337 0
72.1784 -0.0976975 0
72.0457 -0.10364 0
72.1375 -0.22207 0
72.1807 -0.269715 0
72.0595 -0.0316837 0
72.3119 -0.193377 0
72.337 -0.165671 0
72.1663 0.0442206 0
72.0781 -0.0519203 0
72.3284 -0.0523569 0
72.3448 -0.0660818 0
72.068 0.00269986 0
72.365 -0.048032 0
72.318 0.10276 0
72.0523 0.203606 0
72.2714 0.18177 0
71.9586 0.326739 0
72.2743 0.283771 0
71.7841 0.127989 0
72.2695 0.313716 0
72.0979 0.483899 0
71.6382 0.174693 0
71.8666 0.705711 0
71.7 0.658279 0
71.5925 0.39751 0
71.1887 0.299627 0
71.9123 0.723452 0
71.7863 0.848693 0
71.2224 0.146624 0
71.5057 0.881373 0
71.2609 0.89562 0
71.4638 0.619085 0
71.036 0.327133 0
70.9552 0.415863 0
71.2054 1.02856 0
70.8106 0.209665 0
70.9256 0.836002 0
70.8444 0.708953 0
70.8271 0.857546 0
70.7509 0.00474123 0
70.5574 0.590681 0
70.8042 0.520758 0
70.5953 0.219845 0
70.5572 0.121009 0
70.4397 0.562725 0
70.3597 0.42317 0
70.6225 0.0783941 0
70.3407 0.191157 0
70.3532 0.193682 0
70.3574 0.161889 0
70.7674 -0.0905446 0
70.4709 0.0196652 0
70.3463 -0.208756 0
70.7145 -0.336465 0
70.6079 -0.261598 0
70.5066 -0.475755 0
70.3996 -0.357653 0
70.7483 -0.0556256 0
70.5972 -0.699061 0
70.6585 -0.674112 0
71.4765 -0.147543 0
70.9258 -0.974309 0
70.7427 -0.461339 0
71.3744 -0.602427 0
71.4651 -0.853226 0
71.1449 -0.893473 0
71.0468 -1.13708 0
71.5488 -0.375988 0
71.557 -1.12391 0
71.4125 -1.37799 0
71.9804 -1.35845 0
71.9804 -0.00348041 0
71.8655 -1.04971 0
72.0069 -1.40251 0
71.7931 -0.281817 0
72.1655 -1.45576 0
72.3958 -0.65119 0
72.292 -1.53737 0
72.6147 -0.265446 0
72.7044 -1.0365 0
72.6125 -1.29899 0
72.3808 -0.159012 0
72.9987 -1.24874 0
73.2355 -0.900787 0
72.825 -0.878927 0
72.86 -0.411032 0
73.3516 -0.967266 0
72.9908 -0.272835 0
73.0428 -0.0442459 0
73.1137 -0.718883 0
73.5066 -0.761747 0
73.5617 -0.785661 0
73.1618 -0.17577 0
73.5206 -0.450565 0
73.6527 -0.341363 0
73.1696 -0.0696499 0
73.6061 -0.189479 0
73.6665 -0.213885 0
73.4236 -0.271621 0
73.3309 -0.178383 0
73.4251 -0.181548 0
73.626 -0.0784528 0
73.459 -0.000235213 0
73.5751 0.0167944 0
73.5239 -0.0162915 0
73.5389 0.0293776 0
73.6287 -0.194632 0
73.5406 -0.13263 0
73.4371 -0.218156 0
73.7133 -0.00158865 0
73.3855 -0.154032 0
73.521 -0.444398 0
73.6001 -0.280719 0
73.7181 -0.250467 0
73.3982 -0.361621 0
73.7709 -0.310026 0
74.0392 -0.0634053 0
73.6441 -0.551319 0
73.4412 -0.705846 0
73.5277 -0.816475 0
74.1166 -0.244721 0
74.0141 -0.934876 0
73.6034 -0.994884 0
74.2979 -0.141944 0
73.7875 -1.29419 0
74.0591 -1.51368 0
74.4118 -0.878916 0
74.5256 -0.000923829 0
74.4281 -1.70045 0
74.804 -0.550317 0
75.0428 -0.617073 0
74.5934 -1.5308 0
74.6156 -1.19687 0
75.1365 -1.69333 0
74.8243 -0.174854 0
75.0038 -1.87678 0
75.4282 -1.19732 0
75.793 -1.662 0
74.6343 -0.0450005 0
76.3321 -1.00027 0
76.3048 -0.70361 0
74.633 0.0508057 0
76.5203 -1.58179 0
76.9299 -0.88456 0
75.447 0.209446 0
74.9245 0.0370771 0
75.8824 -0.404959 0
77.1034 -0.362556 0
74.748 0.105701 0
77.0877 0.381318 0
77.2379 -0.496032 0
77.2627 -0.247144 0
74.6366 0.622611 0
76.3294 0.75575 0
77.3714 0.706731 0
74.5261 0.108662 0
77.2113 1.13858 0
77.1046 1.29232 0
76.6729 2.5897 0
73.5298 0.195146 0
77.4279 2.18638 0
75.9047 1.54008 0
74.4199 0.746578 0
74.4668 1.59567 0
77.3103 2.55888 0
76.7753 3.1611 0
73.8561 0.335077 0
76.6799 3.66677 0
73.5769 0.00516569 0
73.5801 0.000985942 0
73.5875 0.00380981 0
73.5861 0.00440737 0
73.5776 0.00159256 0
73.5687 -0.00133756 0
73.5624 -0.00397953 0
73.5559 -0.0026911 0
73.5327 0.0027947 0
73.5019 -0.02124 0
73.4961 -0.0142127 0
73.4628 0.00267716 0
73.4076 -0.0347822 0
73.3971 -0.0381354 0
73.3836 -0.0232557 0
73.3379 0.00320957 0
73.2817 -0.058653 0
73.2739 -0.0440691 0
73.2207 0.000500249 0
73.1287 -0.0863134 0
73.117 -0.0814409 0
73.0056 -0.11124 0
73.0961 -0.0399002 0
72.9494 -0.0667272 0
72.8173 -0.102875 0
72.9242 -0.0622156 0
72.7773 -0.0907029 0
72.7235 -0.0644704 0
72.6625 -0.109667 0
72.763 -0.0684551 0
72.6021 -0.0557747 0
72.5372 -0.103639 0
72.6057 -0.0592905 0
72.4443 -0.0849529 0
72.4285 -0.0586982 0
72.3995 -0.0421077 0
72.4717 -0.05179 0
72.3845 -0.0303929 0
72.326 -0.0036518 0
72.3673 -0.022778 0
72.2909 0.0236445 0
72.2944 0.0260291 0
72.2759 0.0385458 0
72.3071 0.00612782 0
72.2714 0.0727292 0
72.3016 0.123671 0
72.3335 0.0788719 0
72.2982 0.111301 0
72.3511 0.157944 0
72.3565 0.201342 0
72.4422 0.127849 0
72.401 0.164451 0
72.483 0.223328 0
72.5708 0.342596 0
72.5888 0.169548 0
72.6264 0.273238 0
72.7064 0.386151 0
72.7654 0.23623 0
72.639 0.284243 0
72.8457 0.438722 0
72.8472 0.425169 0
72.8934 0.252517 0
73.0074 0.169178 0
73.056 0.360378 0
72.6987 0.125867 0
73.156 0.410045 0
73.3702 0.412185 0
73.2577 0.376256 0
73.1676 0.232989 0
73.4269 0.376507 0
73.4721 0.317194 0
73.4682 0.0552196 0
73.3467 0.303945 0
73.56 0.216487 0
73.6222 0.175827 0
73.3762 0.085962 0
73.5251 0.11243 0
73.7177 0.0611326 0
73.5366 0.0875247 0
73.7333 0.0311195 0
73.7135 -0.184689 0
73.613 -0.0897621 0
73.4452 -0.0660544 0
73.6549 -0.238499 0
73.6791 -0.239493 0
73.33 -0.0830131 0
73.5795 -0.43037 0
73.5235 -0.289201 0
73.4424 -0.424495 0
73.452 -0.22495 0
73.4021 -0.626114 0
73.0529 -0.911363 0
72.8941 -0.198846 0
73.1067 -0.556329 0
72.8458 -0.992726 0
72.8655 -0.703769 0
73.012 -0.275663 0
72.7243 -0.931902 0
72.5647 -0.992232 0
72.4433 -0.216636 0
72.2711 -0.388016 0
72.2818 -0.806833 0
72.206 -1.10377 0
72.4415 -0.588218 0
71.9883 -0.975343 0
71.8531 -0.999213 0
71.6211 -0.24831 0
71.8532 -0.563688 0
71.5642 -0.942363 0
71.5435 -0.750274 0
71.8939 -0.285853 0
71.4617 -0.761449 0
71.2158 -0.644879 0
71.2872 -0.204852 0
71.3549 -0.631245 0
71.031 -0.604289 0
71.0549 -0.372548 0
71.442 -0.215317 0
70.9447 -0.405317 0
70.8604 -0.199537 0
71.1114 -0.121468 0
70.8842 -0.062513 0
71.0358 -0.0354539 0
70.8819 0.0372072 0
71.0683 -0.0797826 0
70.8324 0.0245894 0
70.8531 0.246354 0
70.9928 0.0402991 0
70.8635 0.237022 0
70.9692 0.443773 0
71.0472 0.100985 0
70.8963 0.137755 0
70.9742 0.383041 0
71.0397 0.507184 0
71.0515 0.0545602 0
71.0728 0.464276 0
71.2989 0.666893 0
71.259 0.504118 0
71.1925 0.129367 0
71.4243 0.48436 0
71.1305 0.166616 0
71.1173 0.434565 0
71.4102 0.596842 0
71.6458 0.590351 0
71.6474 0.548097 0
71.1627 0.00856409 0
71.8664 0.503463 0
71.8919 0.423783 0
71.8056 0.195572 0
71.602 0.0674419 0
71.6729 0.00692698 0
71.9116 0.279374 0
71.4069 0.118553 0
72.1031 0.0846723 0
72.0181 0.0921842 0
71.897 -0.0283906 0
71.5548 -0.0107762 0
72.0786 -0.168023 0
72.0898 -0.343348 0
71.667 -0.119301 0
71.7141 -0.0758734 0
71.9245 -0.293027 0
72.0201 -0.560295 0
71.6309 -0.00853863 0
71.9435 -0.636819 0
71.924 -0.650083 0
71.5901 -0.0830797 0
71.725 -0.79708 0
71.6829 -0.741809 0
71.5839 -0.478799 0
71.6119 -0.168118 0
71.645 -0.206776 0
71.7222 -0.669436 0
71.6111 -0.13247 0
71.4884 -0.792403 0
71.4244 -0.627553 0
71.5322 -0.393932 0
71.579 -0.0454144 0
71.2762 -0.392534 0
71.2875 -0.321361 0
71.5195 -0.123988 0
71.5055 0.00572252 0
71.5556 -0.0483707 0
71.2667 -0.142034 0
71.5775 -0.0710586 0
71.2616 0.0995252 0
71.2438 0.20928 0
71.6291 -0.00475529 0
71.4366 0.460983 0
71.4328 0.75976 0
71.4348 0.638058 0
72.0096 0.177619 0
71.7256 1.13931 0
71.8071 1.30758 0
71.6026 0.367409 0
72.0962 1.07927 0
71.8711 0.313182 0
72.2119 1.69767 0
72.331 0.156796 0
72.3256 1.81146 0
72.4197 1.81708 0
72.0957 0.10705 0
72.4122 1.65178 0
73.0728 2.19918 0
73.3214 2.27158 0
72.9716 0.522998 0
73.5044 2.28129 0
73.662 2.51571 0
72.4881 1.19209 0
73.9644 1.61113 0
73.3364 0.544828 0
74.0729 2.52732 0
73.5091 0.198099 0
74.4246 2.38301 0
74.6519 2.32846 0
73.1588 0.135043 0
74.407 1.95877 0
75.2278 2.09316 0
75.5636 1.9416 0
74.0029 0.430869 0
75.2975 1.85746 0
75.7708 1.76582 0
74.6777 1.64718 0
75.6614 1.07812 0
74.3069 0.328934 0
75.4559 1.67452 0
74.5464 0.130166 0
76.1083 1.49724 0
76.2264 1.22826 0
74.2634 0.114052 0
75.954 0.844608 0
76.3609 0.794663 0
76.5098 0.586193 0
75.0693 0.0682857 0
76.5472 0.33428 0
76.5968 0.254873 0
75.3296 0.0370849 0
76.5685 0.179829 0
76.1463 -0.0757405 0
75.2885 0.274973 0
75.0109 0.267244 0
76.59 -0.0443061 0
76.5462 -0.266727 0
76.7055 -0.398022 0
74.9777 -0.0011946 0
76.4578 -0.534234 0
76.7134 -0.749606 0
75.1707 -0.0180349 0
76.3594 -0.520454 0
76.7497 -1.01139 0
76.143 -0.804119 0
75.3374 -0.249548 0
76.7226 -1.17241 0
76.7279 -1.35726 0
75.9895 -0.418514 0
75.9474 -1.55208 0
74.8987 -1.38527 0
76.6617 -1.42488 0
74.8178 -0.193806 0
76.723 -1.88495 0
76.1736 4.19495 0
76.6164 3.61314 0
72.9517 1.1519 0
76.1423 4.19314 0
74.689 4.03469 0
75.6068 4.70262 0
73.2564 0.43665 0
75.0503 4.91912 0
74.3502 4.97259 0
72.4945 0.600889 0
74.3394 5.24859 0
76.7284 -2.13713 0
74.9307 -0.113043 0
76.6735 -2.33757 0
76.114 -2.6651 0
75.6649 -2.30976 0
74.5914 -0.14757 0
76.2866 -2.9918 0
73.5875 4.94256 0
75.9825 -3.73817 0
74.5674 -0.755396 0
75.8481 -3.65737 0
75.2859 -4.26336 0
71.7939 1.49934 0
75.1154 -4.24401 0
75.5682 -2.23099 0
75.5006 -3.7992 0
74.2323 -2.85824 0
73.4271 -0.472666 0
74.9266 -3.91231 0
74.5105 -4.22177 0
73.1734 5.22251 0
74.5283 -4.23821 0
73.9075 -0.245196 0
73.9296 -4.51971 0
73.563 -4.94912 0
73.0707 -0.307073 0
72.9166 -5.12316 0
73.1486 -3.6804 0
71.7948 -0.379019 0
72.3381 -5.23811 0
72.179 -2.87654 0
73.1216 -2.17592 0
72.6761 -4.46585 0
71.9338 -4.76395 0
73.6432 2.62229 0
71.1884 0.335427 0
73.1349 1.77371 0
72.1692 -0.0317505 0
71.6678 -5.15473 0
73.0031 4.97999 0
71.044 0.242039 0
72.4773 4.26619 0
71.1038 -5.15197 0
71.8865 -1.00724 0
70.5051 -3.69627 0
72.5174 5.67637 0
70.2709 1.30427 0
72.4927 5.61622 0
70.9618 4.88437 0
70.453 0.261331 0
71.5145 5.07311 0
70.8697 -3.83501 0
71.6082 -0.29831 0
70.535 -5.28344 0
70.5794 -5.11577 0
71.7253 5.42457 0
70.406 5.31115 0
69.9776 0.0160724 0
71.1322 5.42784 0
69.6681 3.36683 0
70.001 1.4788 0
69.8922 -5.26376 0
70.2885 -0.636825 0
70.1362 -5.16729 0
69.5222 5.59316 0
69.4478 -4.85155 0
69.7079 -0.600041 0
69.4995 -1.96073 0
68.6827 -4.66295 0
70.4876 -2.41907 0
68.5261 -4.47278 0
69.373 -0.157624 0
67.8892 -4.31373 0
69.1002 1.83459 0
69.5029 0.275754 0
69.2105 4.73259 0
69.0635 0.0598164 0
69.0384 5.53019 0
68.9109 5.23471 0
68.8105 0.11293 0
68.3406 4.58243 0
68.6259 0.0747814 0
68.7653 -3.97929 0
69.3807 -0.308906 0
69.5772 4.03828 0
67.8914 0.169157 0
68.1259 4.32968 0
67.8115 -4.32463 0
69.4701 -0.139613 0
66.6237 -3.63358 0
67.8563 -0.15555 0
67.1132 -3.60909 0
68.568 1.63798 0
67.7897 0.0636127 0
69.2227 -3.16091 0
67.8028 -0.0719295 0
66.6789 -3.40365 0
67.6384 3.91814 0
67.6347 -2.58468 0
67.8453 -0.122772 0
66.856 -2.88065 0
68.157 2.04785 0
66.5957 1.38712 0
67.2518 3.38288 0
67.7641 -0.461385 0
66.8091 -3.20671 0
67.8022 0.0958877 0
67.2325 4.56263 0
67.9656 -1.41442 0
67.7941 -0.0676546 0
66.5484 -2.90674 0
67.122 4.14001 0
67.8224 0.177814 0
66.9278 3.24667 0
66.7909 3.20417 0
67.7699 0.0912732 0
66.2321 2.88273 0
65.983 -2.56887 0
67.8038 -0.149197 0
65.7298 -2.58546 0
67.19 -1.17 0
67.794 -0.130934 0
65.3717 -1.72498 0
66.2351 3.60071 0
67.7687 0.156735 0
67.0195 2.25763 0
65.7107 -1.507 0
67.7278 -0.147106 0
65.2429 -1.40206 0
65.397 2.67561 0
67.7163 0.0395781 0
65.6367 2.54043 0
65.8448 2.06853 0
67.7823 -0.00210353 0
65.3147 2.23661 0
66.0374 -0.841204 0
67.7383 -0.215758 0
65.53 -0.735786 0
64.7481 -0.394526 0
67.4309 -0.526794 0
64.9033 -0.307489 0
67.217 0.641696 0
67.7365 -0.00723138 0
66.7449 1.70512 0
65.2404 1.80668 0
67.668 -0.0328451 0
64.8255 1.24074 0
67.5535 -0.137874 0
67.7755 -0.0898346 0
64.7894 0.0291192 0
65.1023 0.133458 0
67.7412 -0.065565 0
66.5851 0.28849 0
65.3534 0.529683 0
67.7544 -0.0618783 0
67.7902 -3.51591 0
67.9313 -0.124068 0
67.7986 0.0722469 0
68.4742 4.7309 0
69.0777 -4.84634 0
70.9005 -0.561128 0
69.8517 0.619298 0
70.9429 5.72035 0
67.7551 0.0682781 0
65.8943 3.45637 0
65.4566 -1.72028 0
67.7857 -0.118722 0
67.898 -0.160534 0
67.9343 -2.16896 0
67.9412 0.201148 0
67.8032 0.0837549 0
67.735 -0.0433088 0
65.1665 1.58953 0
69.0256 0.286208 0
68.3333 0.915958 0
68.6566 -0.766779 0
69.7493 -0.394037 0
73.0869 -0.693532 0
73.2407 -4.97348 0
74.5837 4.96051 0
73.0264 0.26129 0
67.8749 0.958962 0
69.5038 5.38094 0
68.7558 -4.4194 0
69.0544 -1.32407 0
67.3209 -0.872566 0
65.864 0.00454385 0
67.1799 4.07141 0
68.0972 1.14897 0
68.041 -1.0024 0
66.0472 -2.92561 0
76.5741 -2.67467 0
74.4493 -0.359208 0
74.3641 0.36775 0
77.3494 1.71809 0
67.9772 -0.255833 0
67.8639 -0.0332871 0
67.8702 0.0432643 0
68.7554 0.454891 0
71.6274 0.442993 0
71.4859 2.64226 0
70.3766 -1.14472 0
72.255 -0.99241 0
70.7832 3.23009 0
72.8104 5.30512 0
72.0444 -5.22684 0
71.2119 -1.10997 0
73.684 0.886686 0
74.6647 2.92861 0
73.4123 -1.56215 0
73.9096 -0.0171574 0
75.2132 -0.0520677 0
76.7243 -0.501281 0
75.9692 -1.79559 0
74.7297 0.0104537 0
74.565 0.00392519 0
76.2396 1.1613 0
74.2038 -1.42291 0
74.3115 -0.146817 0
68.897 -0.837056 0
68.4306 -0.281921 0
68.2892 0.667486 0
68.9444 0.592812 0
68.1632 0.597531 0
67.835 0.0863609 0
67.802 -0.0623873 0
68.1579 -0.495769 0
74.8795 0.333482 0
75.7393 0.417102 0
75.0993 -0.54995 0
75.0029 -0.0665054 0
66.6613 -0.574684 0
67.7565 -0.101044 0
67.5778 -0.227516 0
67.7977 -0.163434 0
67.7815 0.0824762 0
67.868 0.31143 0
74.7993 2.20755 0
73.7553 0.329871 0
73.8375 -0.00242988 0
73.3746 -0.131008 0
70.6732 -0.0145637 0
70.2087 -1.63681 0
70.8872 1.16298 0
69.9934 0.282873 0
68.0704 2.71478 0
67.8176 5.018 0
67.7661 -3.91393 0
68.4151 -1.9146 0
68.7092 -1.22587 0
67.799 -1.33212 0
68.1618 3.11204 0
68.2236 1.40414 0
74.4123 -0.220468 0
74.58 -0.108778 0
75.0225 0.0393372 0
75.8112 0.611246 0
69.5076 -3.25159 0
70.2133 -3.1432 0
69.9317 3.05596 0
70.4079 5.72154 0
68.999 -2.3377 0
69.7723 -1.31473 0
69.5927 2.00667 0
68.9932 0.968431 0
72.947 2.2655 0
72.6988 0.225937 0
73.3459 -0.00177849 0
73.6369 -0.345163 0
67.5402 0.576372 0
67.766 -0.00300808 0
73.871 -0.127971 0
73.9834 -0.658201 0
74.8718 0.686759 0
74.0143 0.11253 0
68.7332 -0.537583 0
68.3491 -0.699698 0
68.9248 1.09951 0
68.1679 0.262753 0
67.8431 -0.0859964 0
68.1533 -0.212783 0
67.9542 0.0462901 0
67.8208 0.0671993 0
65.4415 1.31952 0
67.3333 1.00608 0
73.8855 -1.76374 0
75.9803 -3.4266 0
77.0355 2.98386 0
73.8747 1.27131 0
67.3463 -1.37395 0
65.9482 -1.7408 0
71.7558 0.0723829 0
71.3379 0.428355 0
71.5816 -0.057303 0
71.319 -0.466286 0
73.1296 -1.09844 0
72.6044 -0.126709 0
71.622 -1.30536 0
71.7235 -0.00841899 0
73.4688 -0.128885 0
73.5101 -0.194163 0
73.2644 0.793884 0
73.0334 0.00602717 0
67.7676 0.0530821 0
67.6868 0.143549 0
66.9503 0.345386 0
65.5895 0.728159 0
67.7289 -0.127542 0
67.7674 -0.115263 0
67.5119 0.125854 0
67.5453 -0.423902 0
76.7128 -1.17888 0
75.1331 -0.886884 0
75.9837 0.640069 0
76.9423 -1.00913 0
68.0681 -0.0121907 0
68.1512 -0.0821509 0
67.8703 0.0236334 0
68.2424 0.0934489 0
73 -0.134575 0
73.1806 -0.381732 0
72.3333 0.502591 0
71.9002 0.0657637 0
71.6524 -0.0968459 0
71.9394 -0.477322 0
70.6786 -0.81761 0
70.9746 -0.169891 0
68.4443 -0.434944 0
69.174 -1.24574 0
68.6637 1.00223 0
68.3462 0.727492 0
68.9691 1.84928 0
67.7527 1.13751 0
68.1982 -1.11516 0
68.7311 -1.62904 0
75.6027 -0.0775737 0
76.1948 0.801801 0
74.5135 -1.60285 0
75.2 -0.577325 0
67.8158 -0.575241 0
67.9204 -0.70284 0
67.8543 0.441393 0
67.5651 0.773167 0
72.1018 -0.154455 0
71.5834 0.0777141 0
70.6279 -0.000737377 0
70.3514 -0.055942 0
73.0572 2.63189 0
74.5986 4.3811 0
73.9177 -4.86136 0
73.416 -1.88088 0
66.3439 -2.08679 0
67.886 -2.0917 0
72.5948 -1.75697 0
72.897 -0.626097 0
72.0805 0.300963 0
74.0513 1.72518 0
66.0805 3.28496 0
67.2227 1.86287 0
72.1481 -0.0591309 0
72.5014 -0.734601 0
71.6419 0.0676596 0
71.6593 0.0127451 0
74.6237 -0.188689 0
74.6124 -0.80403 0
75.054 0.846548 0
74.3644 0.129471 0
71.6853 0.911944 0
70.4971 0.230081 0
71.1884 -0.204695 0
71.6004 -1.80673 0
74.7069 0.8572 0
74.8719 1.9213 0
73.491 -0.569671 0
74.338 -0.641309 0
71.0143 -2.24759 0
71.6465 -1.04856 0
71.2655 1.74014 0
73.1192 3.79765 0
71.5955 0.426034 0
71.3225 0.0740719 0
70.6266 0.0484682 0
70.7478 0.794497 0
71.1548 -0.261442 0
71.5042 -0.00318793 0
71.5627 -0.0513566 0
71.8497 -0.370424 0
69.4698 0.310919 0
69.2992 0.808397 0
69.5512 -0.635514 0
70.1056 -0.201937 0
70.5883 1.83512 0
69.4518 1.2198 0
69.0457 -1.6367 0
68.4458 -1.69304 0
75.2568 -0.167684 0
75.1369 -0.0945779 0
74.8454 -0.0104288 0
75.0529 -0.260705 0
69.4595 2.50013 0
69.7997 1.65195 0
69.0828 -0.477368 0
68.9651 -0.183535 0
68.7664 0.161903 0
69.3018 0.540513 0
67.0709 -0.513679 0
67.7305 -0.732425 0
76.6044 -1.73182 0
75.2632 -1.05054 0
75.5163 1.87658 0
77.4332 0.985552 0
67.9204 -0.29263 0
67.8123 -0.104936 0
67.7911 0.0791752 0
67.9455 0.231465 0
68.1862 0.0200637 0
68.2086 0.250181 0
68.3871 -0.138881 0
68.509 -0.00410887 0
66.3868 -0.0643639 0
64.7716 0.292865 0
72.952 1.97446 0
75.274 1.42781 0
74.2778 -1.37824 0
74.7688 -2.7493 0
67.7762 1.32355 0
67.443 0.714019 0
67.785 -0.0292956 0
67.6585 -0.0663301 0
70.0802 4.59025 0
68.398 2.70234 0
69.663 -2.53849 0
69.126 -5.03815 0
67.5123 0.393701 0
67.7305 0.0887523 0
73.2313 1.0646 0
73.3964 2.42105 0
73.5689 -0.10733 0
73.4492 -0.113683 0
70.6478 -0.0361083 0
70.8559 -0.088424 0
71.588 -0.0293337 0
71.9133 0.0966434 0
75.7597 -1.5042 0
76.0274 -0.15583 0
75.9511 -0.0237743 0
76.63 -0.1744 0
67.5717 0.0116526 0
67.3279 -1.04363 0
68.1009 0.734011 0