# vtk DataFile Version 3.0
Unstructured Grid for Triangles
ASCII
DATASET UNSTRUCTURED_GRID
POINTS 29612 DOUBLE
-0.000272397 1.23686e-05 0
-0.000295789 9.5838e-06 0
-0.000277865 -3.1235e-06 0
0.002024 0.0005 0
0.00203975 0.00049875 0
0.00205 0.0005 0
0.00203975 -0.00049875 0
0.002024 -0.0005 0
0.00205 -0.0005 0
0.0020295 0.0004975 0
0.0020295 -0.0004975 0
0.00201925 0.00049625 0
0.00201925 -0.00049625 0
-0.000529747 -0.000479887 0
-0.00055 -0.0005 0
-0.000524 -0.0005 0
-0.000505983 -0.000484325 0
-0.000498 -0.0005 0
-0.000472 -0.0005 0
-0.000483864 -0.000487761 0
-0.000446 -0.0005 0
-0.000459 -0.000484239 0
-0.000429453 -0.000424878 0
-0.000447486 -0.000420717 0
-0.000441829 -0.000436609 0
-0.000512578 -0.000462101 0
-0.000493078 -0.000453594 0
-0.00050706 -0.000439006 0
-0.000419243 -0.000477545 0
-0.000440307 -0.000471837 0
-0.00043691 -0.000486724 0
-0.000516129 -0.000420948 0
-0.000495355 -0.000415432 0
-0.000511646 -0.00040128 0
-0.000394697 -0.000481197 0
-0.000406302 -0.000455143 0
-0.000537257 -0.000388197 0
-0.000531099 -0.000407297 0
-0.000523982 -0.000388328 0
-0.000370063 -0.000472956 0
-0.000368 -0.0005 0
-0.00035308 -0.000485302 0
-0.0005072 -0.00037867 0
-0.000485506 -0.000383975 0
-0.000490949 -0.000359622 0
-0.000337127 -0.000484331 0
-0.000316 -0.0005 0
-0.000326495 -0.00047415 0
-0.00055 -0.00035 0
-0.000531201 -0.000370361 0
-0.000528367 -0.000346817 0
-0.000363898 -0.000448809 0
-0.000383315 -0.000460336 0
-3.26269e-05 -0.000415503 0
-5.99662e-05 -0.000409556 0
-5.46944e-05 -0.000429488 0
-0.000529747 0.000479887 0
-0.00055 0.0005 0
-0.00055 0.000475 0
-0.00055 0.00045 0
-0.000534834 0.000429171 0
-0.000526943 0.000442611 0
-0.000534026 0.000460176 0
-0.000531099 0.000407297 0
-0.000511672 0.000401178 0
-0.000516129 0.000420948 0
-0.000524 0.0005 0
-0.000505983 0.000484325 0
-0.000531201 0.000370361 0
-0.0005072 0.00037867 0
-0.000523982 0.000388328 0
-0.00048341 0.000469132 0
-0.000483679 0.000487539 0
-0.000528367 0.000346817 0
-0.00055 0.000325 0
-0.000525657 0.000328474 0
-0.000498 0.0005 0
-0.000530382 0.0003125 0
-0.000419243 0.000477545 0
-0.000440015 0.00047335 0
-0.000425917 0.000463678 0
-0.000435138 0.000262661 0
-0.000414982 0.000274462 0
-0.000435654 0.000285217 0
-0.000459 0.000484239 0
-0.000436852 0.000487027 0
-0.000446 0.0005 0
-0.000533308 0.000292503 0
-0.00055 0.000275 0
-0.000523377 0.000276953 0
-0.000425282 0.000446352 0
-0.000409368 0.000435728 0
-0.000406302 0.000455143 0
0.002009 0.000495 0
0.001998 0.0005 0
0.00199875 0.00049375 0
0.0019885 0.0004925 0
0.001972 0.0005 0
0.00197825 0.00049125 0
0.001968 0.00049 0
0.00195775 0.00048875 0
0.001946 0.0005 0
0.0019475 0.0004875 0
0.00193725 0.00048625 0
0.00192 0.0005 0
0.001927 0.000485 0
0.00191675 0.00048375 0
0.0019065 0.0004825 0
0.001894 0.0005 0
0.00189625 0.00048125 0
0.001886 0.00048 0
0.001868 0.0005 0
0.00187575 0.00047875 0
0.0018655 0.0004775 0
0.00185515 0.00048575 0
0.001842 0.0005 0
0.001845 0.000475 0
0.00185525 0.00047625 0
0.00182564 0.0004829 0
0.001816 0.0005 0
0.0018245 0.0004725 0
0.00183475 0.00047375 0
0.00181425 0.00047125 0
0.00180295 0.000482657 0
0.00179 0.0005 0
0.00179375 0.00046875 0
0.001804 0.00047 0
0.00178168 0.000480619 0
0.001764 0.0005 0
0.00177325 0.00046625 0
0.0017835 0.0004675 0
0.00176428 0.000476631 0
0.001763 0.000465 0
0.001738 0.0005 0
0.001751 0.000484164 0
0.00175275 0.00046375 0
0.00174025 0.000475632 0
0.001712 0.0005 0
0.00172615 0.000478449 0
0.001722 0.00046 0
0.00173225 0.00046125 0
0.0017015 0.0004575 0
0.00171243 0.00047381 0
0.00169554 0.000479999 0
0.001686 0.0005 0
0.00167507 0.000479751 0
0.00168498 0.000464861 0
0.00166 0.0005 0
0.0016558 0.000471459 0
0.00167135 0.000462887 0
0.001681 0.000455 0
0.0016605 0.0004525 0
0.00167075 0.00045375 0
0.00164059 0.000461599 0
0.0016394 0.000479551 0
0.00162881 0.00046615 0
0.00162975 0.00044875 0
0.00165025 0.00045125 0
0.00164 0.00045 0
0.00161754 0.000458641 0
0.00161722 0.000478101 0
0.00159956 0.000458294 0
0.00160925 0.00044625 0
0.0016195 0.0004475 0
0.00157667 0.000460322 0
0.00158875 0.00044375 0
0.00159194 0.000480155 0
0.001599 0.000445 0
0.0015785 0.0004425 0
0.00155808 0.000456757 0
0.00155647 0.000476701 0
0.00154059 0.000466642 0
0.00153756 0.000450083 0
0.00154839 0.000450446 0
0.00156825 0.00044125 0
0.00151954 0.000480508 0
0.00154052 0.00048477 0
0.00153 0.0005 0
0.00154775 0.00043875 0
0.00152142 0.000456625 0
0.00152821 0.000445753 0
0.0015375 0.0004375 0
0.001504 0.0005 0
0.00149644 0.000485168 0
0.00151787 0.000443178 0
0.00152725 0.00043625 0
0.00150675 0.00043375 0
0.001517 0.000435 0
0.00148119 0.000450887 0
0.00148072 0.000475756 0
0.00146584 0.000463516 0
0.00150008 0.00046396 0
0.00149351 0.00044543 0
0.0015061 0.000446252 0
0.001476 0.00043 0
0.00148625 0.00043125 0
0.00146492 0.000482975 0
0.00144888 0.000473562 0
0.00146676 0.000444259 0
0.00145255 0.000453656 0
0.00145652 0.000438669 0
0.00141401 0.000479821 0
0.001426 0.0005 0
0.0014 0.0005 0
0.00144374 0.000438862 0
0.0014555 0.0004275 0
0.001435 0.000425 0
0.00144525 0.00042625 0
0.00142746 0.000438121 0
0.00141288 0.000443191 0
0.00141707 0.000432778 0
0.0013921 0.000438992 0
0.00140355 0.00045932 0
0.00138302 0.00045922 0
0.00142912 0.000458869 0
0.00140592 0.000430037 0
0.0014145 0.0004225 0
0.00136458 0.00045869 0
0.00137106 0.00044063 0
0.001394 0.00042 0
0.00138259 0.000428915 0
0.00137484 0.000477094 0
0.00139166 0.000478902 0
0.0013586 0.000478984 0
0.00133449 0.000478649 0
0.00134717 0.000461848 0
0.00137256 0.000425134 0
0.00135323 0.000424541 0
0.00136325 0.00041625 0
0.00136122 0.00042876 0
0.00131206 0.000447284 0
0.00133168 0.000456738 0
0.00131773 0.000465243 0
0.00134756 0.000440343 0
0.00132747 0.000436463 0
0.00133483 0.000426786 0
0.00131081 0.00041867 0
0.00132382 0.000422815 0
0.00131507 0.00043122 0
0.00131059 0.000480123 0
0.0013325 0.0004125 0
0.0012915 0.0004075 0
0.0012982 0.000418199 0
0.00128915 0.000426216 0
0.00126366 0.000447574 0
0.00127331 0.000430908 0
0.00128781 0.000444872 0
0.00125336 0.000428376 0
0.00130218 0.000431077 0
0.00127894 0.000416344 0
0.00124774 0.000469608 0
0.00127668 0.000464148 0
0.00126591 0.00048331 0
0.00126722 0.000418415 0
0.00125768 0.000411931 0
0.00124326 0.000413546 0
0.0012505 0.0004025 0
0.00122408 0.000450118 0
0.00120276 0.000447432 0
0.0012139 0.000432235 0
0.00124336 0.000444132 0
0.00123056 0.000427595 0
0.00122977 0.000409049 0
0.0012185 0.000469217 0
0.00122676 0.000485947 0
0.00120525 0.000486094 0
0.00121479 0.000413153 0
0.00119547 0.000424221 0
0.00120249 0.000407448 0
0.00119925 0.00039625 0
0.00119346 0.000406114 0
0.00117479 0.000447279 0
0.00114726 0.000445259 0
0.0011571 0.000427814 0
0.00119443 0.000466611 0
0.00117447 0.000421596 0
0.00118421 0.00040752 0
0.00117409 0.000404437 0
0.00116775 0.000470073 0
0.001179 0.0004855 0
0.00115473 0.000484802 0
0.0011685 0.0003925 0
0.00117875 0.00039375 0
0.00115454 0.000400551 0
0.001148 0.00039 0
0.00115825 0.00039125 0
0.00111703 0.000423398 0
0.00113786 0.000426731 0
0.00112589 0.000443871 0
0.00113234 0.000406671 0
0.00114754 0.000413371 0
0.001106 0.000442326 0
0.00109703 0.000424261 0
0.0011275 0.0003875 0
0.00113775 0.00038875 0
0.00110211 0.000480875 0
0.00108244 0.000471951 0
0.00109312 0.000458413 0
0.00111755 0.000399116 0
0.0010944 0.000392972 0
0.00110415 0.000405876 0
0.00108839 0.000407536 0
0.00106472 0.000476905 0
0.00107274 0.000457868 0
0.00108011 0.000392415 0
0.00106885 0.000404365 0
0.00106625 0.000388708 0
0.00105286 0.000419254 0
0.00105055 0.000395469 0
0.00104215 0.000439764 0
0.00106346 0.000440629 0
0.00100945 0.000451249 0
0.00102825 0.00045614 0
0.00101189 0.000468452 0
0.00107625 0.00038125 0
0.00105575 0.00037875 0
0.001066 0.00038 0
0.00103352 0.000476905 0
0.00101803 0.00048465 0
0.00103685 0.000389398 0
0.0010245 0.00038825 0
0.00103525 0.00037625 0
0.00101092 0.000399779 0
0.00101267 0.000382619 0
0.00101382 0.00042025 0
0.00103187 0.000405286 0
0.00103359 0.000424605 0
0.000987383 0.00045447 0
0.000999411 0.000435161 0
0.0009744 0.000433145 0
0.0010045 0.0003725 0
0.00101475 0.00037375 0
0.000970845 0.000465215 0
0.000952614 0.000467664 0
0.000961768 0.000449944 0
0.00099729 0.000387704 0
0.000978901 0.00039598 0
0.000985823 0.000381492 0
0.000962289 0.000393709 0
0.000974259 0.000381279 0
0.00097375 0.00036875 0
0.000963045 0.000376631 0
0.000958 0.0005 0
0.000932 0.0005 0
0.000947542 0.00048457 0
0.000949675 0.000385245 0
0.000936214 0.000389472 0
0.000940006 0.000374906 0
0.000966411 0.000412573 0
0.000944241 0.000407079 0
0.000903569 0.000424993 0
0.000921701 0.000402409 0
0.000927439 0.000427744 0
0.000889795 0.000409067 0
0.000903071 0.00040248 0
0.000925447 0.000377721 0
0.00093275 0.00036375 0
0.000907708 0.000387127 0
0.000911303 0.000370839 0
0.000911933 0.000455145 0
0.000930678 0.000473279 0
0.000911886 0.000482603 0
0.000887724 0.000388076 0
0.000899595 0.000375116 0
0.000902 0.00036 0
0.000889241 0.00036954 0
0.000836977 0.000459472 0
0.000836223 0.000483578 0
0.000820467 0.000474142 0
0.000871227 0.000403557 0
0.000861 0.000355 0
0.000868368 0.000365714 0
0.00085484 0.00036588 0
0.000847735 0.000402845 0
0.000823121 0.000421599 0
0.000826582 0.000398147 0
0.000846943 0.00042454 0
0.000838832 0.000378613 0
0.000835569 0.000363808 0
0.000844098 0.00036291 0
0.00085075 0.00035375 0
0.000851465 0.000477164 0
0.00083025 0.00035125 0
0.000822824 0.000368659 0
0.00081446 0.000357362 0
0.000805884 0.000371794 0
0.000753471 0.000477524 0
0.000738313 0.000473927 0
0.000739102 0.000461526 0
0.00079826 0.000358588 0
0.000788607 0.000376287 0
0.000781733 0.000357987 0
0.000816783 0.000384471 0
0.000807975 0.000404095 0
0.000752138 0.000404775 0
0.000767682 0.000417043 0
0.000749617 0.000421803 0
0.000752903 0.000384008 0
0.000738293 0.000393136 0
0.000772614 0.000394048 0
0.00076863 0.000371878 0
0.000765995 0.000354121 0
0.000779 0.000345 0
0.00071811 0.000453059 0
0.000738069 0.000437967 0
0.000752085 0.000365972 0
0.000728123 0.000374583 0
0.000741845 0.000354664 0
[...]
CELL_DATA 58684
VECTORS velocity DOUBLE
65.3544 0.584875 0
73.1736 -0.000337006 0
72.9149 0.000409715 0
72.9802 0.0137834 0
72.9644 0.00609762 0
72.8777 0.0572454 0
73.0081 0.0190658 0
67.8169 0.00162071 0
67.8324 -0.0125661 0
67.9155 0.00177373 0
67.9874 0.00169197 0
68.0262 -0.18174 0
67.864 -0.0441422 0
68.0772 -0.0584296 0
67.8496 -0.0750748 0
68.2077 -0.0838129 0
67.816 -0.0618142 0
68.4538 -0.0876103 0
67.8774 -0.123391 0
68.7964 -0.053656 0
67.8148 -0.0657952 0
68.4313 -0.209035 0
72.4422 -1.22066 0
67.793 0.00781117 0
67.7992 0.0291358 0
67.7923 0.01543 0
67.8282 0.0720492 0
67.8214 0.0118516 0
67.8161 0.0908745 0
67.8903 0.0208572 0
67.8096 0.0821582 0
67.8632 0.0157673 0
67.7867 0.081267 0
68.1023 0.0835507 0
67.9126 0.673882 0
68.0039 0.0352788 0
67.8144 0.103602 0
68.1557 0.204573 0
72.8159 0.0358603 0
72.709 0.00162438 0
72.519 0.0896879 0
72.5019 0.073215 0
72.408 0.00230928 0
72.2268 0.0853484 0
72.2079 0.11358 0
72.1827 0.0719502 0
72.0995 0.00489347 0
71.975 0.125622 0
71.9718 0.0976247 0
71.9102 0.00684634 0
71.7695 0.11998 0
71.7726 0.117348 0
71.7586 0.0693672 0
71.7146 0.00925352 0
71.6454 0.107393 0
71.6498 0.075702 0
71.6236 0.0104987 0
71.5383 0.10866 0
71.5487 0.0882375 0
71.5463 0.0472738 0
71.5203 0.00490416 0
71.4987 0.0646826 0
71.5002 0.0310773 0
71.4898 0.00435539 0
71.468 0.0429556 0
71.4696 0.0276512 0
71.4743 0.0189122 0
71.5028 0.00370626 0
71.4944 0.00183151 0
71.5085 0.00276121 0
71.5375 0.00269337 0
71.537 -0.0137257 0
71.5503 -0.00894404 0
71.5745 -0.0297214 0
71.6009 0.00378744 0
71.6107 -0.0204468 0
71.626 -0.0140535 0
71.6596 0.00439955 0
71.666 -0.0191597 0
71.7187 0.00264547 0
71.6779 -0.0096845 0
71.7129 0.00592692 0
71.7257 0.00701122 0
71.7284 0.0133486 0
71.7344 0.033859 0
71.748 0.0512643 0
71.7472 0.0465156 0
71.7476 0.0771888 0
71.7341 0.10132 0
71.6983 0.136159 0
71.7488 0.0911136 0
71.7137 0.160452 0
71.6716 0.168842 0
71.668 0.143334 0
71.6689 0.225911 0
71.5459 0.253905 0
71.6074 0.22083 0
71.5814 0.290945 0
71.4819 0.356054 0
71.4504 0.281019 0
71.3065 0.366132 0
71.4594 0.311691 0
71.2543 0.113901 0
71.3215 0.39782 0
71.1712 0.37929 0
71.2546 0.426152 0
71.1262 0.112194 0
71.1719 0.433145 0
71.0751 0.482245 0
70.9672 0.242523 0
70.9665 0.269712 0
71.0646 0.39201 0
70.9052 0.45248 0
70.8811 0.166604 0
70.757 0.354597 0
70.8071 0.225211 0
70.6978 0.011441 0
70.7437 0.368926 0
70.6862 0.376034 0
70.5714 0.260656 0
70.5965 0.116612 0
70.6837 0.148398 0
70.5661 0.24379 0
70.5917 0.0602263 0
70.529 0.155232 0
70.6217 0.045235 0
70.5003 0.119135 0
70.6385 0.0091505 0
70.5261 0.0957224 0
70.5517 -0.0114807 0
70.7386 -0.0743057 0
70.6216 -0.0784053 0
70.6814 -0.0384193 0
70.7085 -0.196411 0
70.7087 -0.0268839 0
70.6148 -0.156695 0
70.8246 -0.312843 0
70.9778 -0.219847 0
71.0461 -0.314362 0
70.8765 -0.250214 0
70.8965 -0.294509 0
70.9483 -0.145686 0
71.0738 -0.396523 0
71.1631 -0.439213 0
71.3758 -0.247069 0
71.1047 -0.201166 0
71.148 -0.364874 0
71.2468 -0.455711 0
71.2189 -0.0676774 0
71.5405 -0.437727 0
71.5763 -0.453402 0
71.6954 -0.143499 0
71.4309 -0.226173 0
71.6403 -0.314242 0
71.7215 -0.392252 0
71.5086 -0.0408554 0
71.768 -0.436096 0
71.8964 -0.33338 0
71.845 -0.104312 0
71.9425 -0.173433 0
71.9138 0.0140196 0
72.0066 -0.184048 0
71.8021 0.0328292 0
72.0389 -0.117293 0
72.1498 0.0868974 0
71.82 0.0705803 0
72.1383 0.267832 0
72.0911 0.315317 0
71.9841 0.229839 0
71.7672 0.209598 0
72.1839 0.284603 0
72.1782 0.387087 0
71.7718 0.101391 0
72.1096 0.587274 0
71.9972 0.644307 0
72.0443 0.438953 0
71.7394 0.273323 0
71.7011 0.356237 0
71.9996 0.777378 0
71.6474 0.222915 0
71.8464 0.736449 0
71.8045 0.720337 0
71.8026 0.867233 0
71.6078 0.0157576 0
71.602 0.728072 0
71.7657 0.587816 0
71.587 0.376916 0
71.5592 0.336404 0
71.5236 0.774901 0
71.4329 0.675897 0
71.547 0.128353 0
71.4101 0.494758 0
71.4152 0.567801 0
71.4004 0.513718 0
71.6883 -0.0177245 0
71.4823 0.297461 0
71.304 0.245337 0
71.612 -0.0429937 0
71.5431 -0.012049 0
71.4291 -0.015123 0
71.3257 0.114966 0
71.6609 0.0124535 0
71.4494 -0.213255 0
71.4733 -0.245202 0
72.2981 -0.116917 0
71.6912 -0.591023 0
71.5966 -0.157497 0
72.1343 -0.456414 0
72.1958 -0.708831 0
71.8877 -0.603313 0
71.7287 -0.776779 0
72.3361 -0.330012 0
72.1445 -0.928042 0
72.0321 -1.08826 0
72.5147 -1.2511 0
72.7766 -0.00436272 0
72.5216 -1.00166 0
72.5508 -1.35972 0
72.5789 -0.278968 0
72.6937 -1.4616 0
73.0835 -0.705628 0
72.8309 -1.55553 0
73.3762 -0.334254 0
73.2447 -1.20469 0
73.1537 -1.50222 0
73.1801 -0.195855 0
73.5682 -1.52505 0
73.8974 -1.2778 0
73.5216 -1.1322 0
73.6231 -0.564701 0
74.0255 -1.47354 0
73.7837 -0.411831 0
73.86 -0.0578499 0
73.7613 -1.05329 0
74.2444 -1.2695 0
74.4043 -1.38058 0
73.9878 -0.266931 0
74.3927 -0.890769 0
74.6588 -0.83142 0
73.9624 -0.0873501 0
74.6587 -0.577528 0
74.7214 -0.746033 0
74.2966 -0.58313 0
74.1403 -0.242867 0
74.2608 -0.238243 0
74.7311 -0.489624 0
74.1422 -0.00401852 0
74.7258 -0.386271 0
74.7134 -0.266702 0
74.7164 -0.282732 0
74.2685 -0.135521 0
74.5158 -0.18935 0
74.503 -0.129412 0
74.2255 -0.00498415 0
74.4687 -0.0162114 0
74.3662 -0.117431 0
74.4267 -0.190387 0
74.3166 -0.157681 0
74.3672 -0.0432695 0
74.3686 -0.18325 0
74.3188 -0.0363077 0
74.4099 -0.22157 0
74.2403 -0.197366 0
74.1825 -0.274031 0
74.3953 -0.143988 0
74.4018 -0.429461 0
74.1714 -0.401683 0
74.4132 -0.0830929 0
74.2044 -0.575413 0
74.2834 -0.783986 0
74.5684 -0.50279 0
74.4388 -0.00554426 0
74.4507 -1.0107 0
74.7478 -0.353127 0
74.8979 -0.412477 0
74.579 -0.932946 0
74.6297 -0.761838 0
74.838 -1.16005 0
74.6227 -0.107546 0
74.7565 -1.26611 0
75.1215 -0.866228 0
75.3154 -1.30625 0
74.5064 -0.031718 0
75.7545 -0.87519 0
75.7463 -0.635014 0
74.2371 0.049251 0
75.9139 -1.35301 0
76.2773 -0.805015 0
75.0175 0.19241 0
74.6077 0.0552757 0
75.4468 -0.320649 0
76.4478 -0.401234 0
74.3644 0.0980506 0
76.478 0.199511 0
76.591 -0.605916 0
76.6127 -0.396169 0
74.1709 0.562206 0
75.7882 0.583744 0
76.777 0.470653 0
74.0837 0.0961199 0
76.631 0.850791 0
76.5172 1.05691 0
76.1674 2.27298 0
73.0663 0.180214 0
76.9092 1.83766 0
75.4064 1.33552 0
73.945 0.677628 0
73.9924 1.4551 0
76.806 2.1976 0
76.3323 2.8327 0
73.3857 0.307677 0
76.264 3.29702 0
73.0379 0.00173617 0
73.0582 -0.000145141 0
73.1028 0.0202499 0
73.1085 0.00854559 0
73.1348 -0.000428911 0
73.1681 0.0135484 0
73.1715 0.00795565 0
73.1812 -0.00531545 0
73.1888 -0.00257456 0
73.1858 -0.0112696 0
73.1881 -0.0165241 0
73.1888 -0.00451413 0
73.1538 -0.037802 0
73.1557 -0.0498327 0
73.1557 -0.0448907 0
73.1349 -0.00948013 0
73.0875 -0.0860606 0
73.0906 -0.077961 0
73.0629 -0.0152587 0
72.9566 -0.141893 0
72.9585 -0.146085 0
72.8234 -0.21452 0
72.9522 -0.0916281 0
72.7734 -0.143942 0
72.6104 -0.243777 0
72.7771 -0.160297 0
72.5717 -0.263265 0
72.5038 -0.202932 0
72.3914 -0.320794 0
72.5576 -0.17325 0
72.3253 -0.218325 0
72.175 -0.370922 0
72.325 -0.178837 0
71.9941 -0.403389 0
71.9822 -0.367888 0
71.9133 -0.273349 0
72.0863 -0.211725 0
71.9077 -0.28329 0
71.734 -0.244849 0
71.8495 -0.19052 0
71.5794 -0.410356 0
71.6455 -0.151774 0
71.5115 -0.243663 0
71.6445 -0.222232 0
71.5013 -0.299733 0
71.3274 -0.278107 0
71.3328 -0.142536 0
71.3823 -0.260307 0
71.2403 -0.267647 0
71.2485 -0.255059 0
71.2012 -0.0982577 0
71.2181 -0.128637 0
71.1732 -0.161057 0
71.1485 -0.178546 0
71.1881 -0.0721324 0
71.1482 -0.113929 0
71.1645 -0.10304 0
71.2292 0.000631175 0
71.2067 -0.0519405 0
71.211 -0.0352381 0
71.22 -0.00846639 0
71.2651 0.0226519 0
71.2955 0.0164687 0
71.3215 0.0600383 0
71.2276 -0.0162625 0
71.3531 0.0833305 0
71.4582 0.130105 0
71.4085 0.0995589 0
71.3715 0.0505809 0
71.5016 0.142302 0
71.5304 0.113549 0
71.5961 0.0359269 0
71.4778 0.114411 0
71.613 0.10821 0
71.6704 0.108736 0
71.52 0.032773 0
71.6255 0.0705456 0
71.7751 0.0846911 0
71.6495 0.0544645 0
71.7997 0.0538721 0
71.8515 -0.0282126 0
71.7676 0.00168347 0
71.7365 -0.0224014 0
71.8422 -0.0660585 0
71.8928 -0.0531072 0
71.6997 -0.0286991 0
71.8786 -0.152399 0
71.7926 -0.100143 0
71.8505 -0.186215 0
71.7861 -0.0879114 0
71.8412 -0.27056 0
71.7282 -0.464747 0
71.5806 -0.102772 0
71.6977 -0.265752 0
71.641 -0.528047 0
71.6211 -0.388321 0
71.6394 -0.146664 0
71.5914 -0.528836 0
71.5208 -0.596418 0
71.3868 -0.134999 0
71.3223 -0.249395 0
71.3705 -0.520469 0
71.3421 -0.701554 0
71.4052 -0.351177 0
71.2268 -0.653563 0
71.1552 -0.688237 0
70.9975 -0.185433 0
71.1261 -0.391293 0
70.9933 -0.685046 0
70.9789 -0.546041 0
71.121 -0.189976 0
70.9422 -0.57172 0
70.8123 -0.509542 0
70.8649 -0.165103 0
70.8754 -0.475611 0
70.7142 -0.492272 0
70.7315 -0.298631 0
70.9147 -0.153538 0
70.6711 -0.345525 0
70.6772 -0.176461 0
70.8175 -0.093774 0
70.7053 -0.050287 0
70.8722 -0.029001 0
70.7555 0.0546483 0
70.8618 -0.047803 0
70.7172 0.0190378 0
70.8061 0.236155 0
70.952 0.0503405 0
70.8193 0.240423 0
71.0024 0.458278 0
71.2075 0.117136 0
70.829 0.155666 0
71.0392 0.429848 0
71.1322 0.550535 0
71.1728 0.0746951 0
71.196 0.533869 0
71.5371 0.807421 0
71.5177 0.656797 0
71.5631 0.176412 0
71.8 0.699603 0
71.3932 0.221121 0
71.267 0.516733 0
71.7369 0.793048 0
72.1162 0.879562 0
72.144 0.881084 0
71.4913 -2.40146e-05 0
72.5071 0.949283 0
72.552 0.864104 0
72.5943 0.603632 0
72.4478 0.237844 0
72.6759 0.17675 0
72.6793 0.743098 0
72.0449 0.210562 0
73.0578 0.611917 0
72.9837 0.616032 0
72.9437 0.426364 0
72.5874 0.101363 0
73.2026 0.311168 0
73.4428 0.271892 0
72.8746 0.0438145 0
72.8705 0.116665 0
73.2305 0.138252 0
73.5605 -0.0630187 0
72.6919 0.109268 0
73.5269 -0.11081 0
73.5573 -0.245377 0
72.9483 -0.0389336 0
73.4626 -0.531713 0
73.4581 -0.525 0
73.2664 -0.472982 0
73.0634 -0.139979 0
73.1461 -0.135936 0
73.4349 -0.547598 0
73.0283 -0.0567742 0
73.2819 -0.786243 0
73.2223 -0.718176 0
73.1816 -0.610435 0
73.0037 -0.0594638 0
72.9746 -0.74608 0
72.9678 -0.749938 0
73.0566 -0.288399 0
72.8929 -0.359556 0
72.9886 -0.192469 0
72.8666 -0.60325 0
72.9995 -0.12753 0
72.6978 -0.578175 0
72.659 -0.461176 0
72.9829 -0.0768786 0
72.6808 -0.172112 0
72.4723 -0.00848521 0
72.5888 -0.120811 0
72.9965 0.0500361 0
72.4553 0.349706 0
72.487 0.448258 0
72.8245 -0.0698815 0
72.8599 0.533797 0
72.913 0.0761051 0
72.6387 0.855975 0
73.1263 0.0892923 0
72.6866 1.09598 0
72.798 1.19794 0
73.0443 0.0524833 0
72.8779 1.11798 0
73.1149 1.72493 0
73.2854 1.86549 0
73.4563 0.422535 0
73.4198 1.99035 0
73.5749 2.25142 0
73.0066 0.837386 0
73.9673 1.557 0
73.7063 0.482269 0
73.93 2.42703 0
73.8603 0.181828 0
74.2251 2.4356 0
74.4427 2.45613 0
73.6271 0.114043 0
74.3363 2.08817 0
75.0447 2.50821 0
75.432 2.41605 0
74.1977 0.458822 0
75.1594 2.30266 0
75.6979 2.41614 0
74.5944 1.78324 0
75.7168 1.48518 0
74.4671 0.380235 0
75.3831 2.18956 0
74.6842 0.157302 0
76.1775 2.24247 0
76.3172 1.92908 0
74.4595 0.124131 0
76.0295 1.38501 0
76.5413 1.46554 0
76.7981 1.23522 0
75.1232 0.123529 0
76.8795 0.938883 0
76.9492 0.789945 0
75.3883 0.152958 0
76.9284 0.736609 0
76.3084 0.198435 0
75.3771 0.461889 0
75.1003 0.381079 0
76.9594 0.395205 0
76.857 0.00816252 0
77.0658 -0.173838 0
75.0466 0.00769232 0
76.6612 -0.378598 0
76.966 -0.72016 0
75.1916 0.0144477 0
76.5472 -0.372415 0
76.9192 -1.08176 0
76.189 -0.742481 0
75.3285 -0.184256 0
76.8316 -1.27777 0
76.7492 -1.49299 0
76.0771 -0.285657 0
75.8277 -1.63729 0
74.6422 -1.41534 0
76.6959 -1.52205 0
74.6771 -0.178515 0
76.5899 -2.07582 0
75.7776 3.85102 0
76.2098 3.26038 0
72.5274 1.07444 0
75.7491 3.87102 0
74.3148 3.77638 0
75.2437 4.3797 0
72.8016 0.402473 0
74.7081 4.62249 0
74.0248 4.71537 0
72.0728 0.564243 0
74.0303 4.96174 0
76.5603 -2.32309 0
74.8151 -0.104238 0
76.4544 -2.52571 0
75.8352 -2.83042 0
75.3993 -2.44098 0
74.3747 -0.145853 0
75.9591 -3.18146 0
73.274 4.71633 0
75.5588 -3.91675 0
74.3065 -0.756499 0
75.4162 -3.80935 0
74.8133 -4.41168 0
71.4264 1.42719 0
74.6283 -4.35794 0
75.2762 -2.31639 0
75.0414 -3.91972 0
73.7928 -2.90552 0
73.0513 -0.473462 0
74.4614 -4.00587 0
74.0202 -4.28439 0
72.8846 4.99728 0
74.0402 -4.32011 0
73.5755 -0.24426 0
73.4309 -4.56302 0
73.0396 -4.98902 0
72.6673 -0.307006 0
72.3897 -5.1271 0
72.668 -3.69826 0
71.3461 -0.372644 0
71.8097 -5.2219 0
71.7113 -2.85763 0
72.6804 -2.19383 0
72.177 -4.46223 0
71.4355 -4.72975 0
73.2463 2.4515 0
70.8394 0.323013 0
72.7089 1.65793 0
71.7271 -0.0295042 0
71.1547 -5.10527 0
72.7254 4.78137 0
70.7062 0.235146 0
72.1798 4.09774 0
70.603 -5.08459 0
71.4366 -0.998491 0
70.0547 -3.61684 0
72.2784 5.46339 0
69.9885 1.30697 0
72.2538 5.41515 0
70.7225 4.76951 0
70.1435 0.259818 0
71.2902 4.93261 0
70.4034 -3.77966 0
71.1616 -0.296356 0
70.0494 -5.20488 0
70.0979 -5.03027 0
71.491 5.26461 0
70.1938 5.20958 0
69.6904 0.0177743 0
70.9075 5.29175 0
69.4594 3.37494 0
69.7359 1.49414 0
69.4207 -5.16814 0
69.8651 -0.621795 0
69.6623 -5.07305 0
69.3497 5.51812 0
69.0014 -4.74716 0
69.3165 -0.583733 0
69.1273 -1.89849 0
68.2648 -4.53424 0
70.0554 -2.36093 0
68.1161 -4.34886 0
69.0084 -0.153753 0
67.5009 -4.17375 0
68.8976 1.89657 0
69.2352 0.285025 0
69.0489 4.69749 0
68.8244 0.0671559 0
68.8771 5.46956 0
68.7479 5.20875 0
68.5853 0.125426 0
68.1887 4.60145 0
68.4225 0.0885558 0
68.3745 -3.865 0
69.0164 -0.299114 0
69.3809 4.0096 0
67.8316 0.36035 0
67.98 4.38181 0
67.434 -4.17909 0
69.1016 -0.133754 0
66.2905 -3.47178 0
67.8157 -0.189492 0
66.7848 -3.45873 0
68.4028 1.7538 0
67.7858 0.0722 0
68.8357 -3.05632 0
67.7923 -0.063946 0
66.3688 -3.24009 0
67.5036 4.00157 0
67.3476 -2.43471 0
67.8102 -0.121417 0
66.57 -2.7196 0
68.0225 2.18754 0
66.4877 1.58281 0
67.1245 3.49762 0
67.6881 -0.456561 0
66.5066 -3.03998 0
67.7584 0.199642 0
67.1013 4.62378 0
67.7539 -1.3163 0
67.7896 -0.0523847 0
66.2694 -2.73821 0
66.9921 4.22731 0
67.777 0.365158 0
66.8063 3.37979 0
66.6657 3.3392 0
67.7502 0.193974 0
66.1055 3.03564 0
65.7065 -2.38593 0
67.7813 -0.145553 0
65.4606 -2.40163 0
67.0171 -0.99938 0
67.7858 -0.109435 0
65.1367 -1.53056 0
66.1088 3.72767 0
67.7381 0.33697 0
66.9073 2.43092 0
65.4917 -1.31377 0
67.7173 -0.133735 0
65.0222 -1.2066 0
65.2674 2.83976 0
67.7173 0.142935 0
65.5102 2.70736 0
65.7219 2.2481 0
67.7837 0.0184654 0
65.182 2.41235 0
65.8645 -0.646131 0
67.7018 -0.21207 0
65.3509 -0.537357 0
64.5551 -0.194029 0
67.3256 -0.392638 0
64.7177 -0.104566 0
67.1355 0.838521 0
67.7311 0.0474149 0
66.6306 1.89347 0
65.0988 1.99147 0
67.6555 0.0614673 0
64.6776 1.43603 0
67.5038 -0.0273827 0
67.7742 -0.0681641 0
64.6149 0.230635 0
64.9398 0.336407 0
67.7484 -0.0282072 0
66.4741 0.492363 0
65.2005 0.732309 0
67.7593 -0.0345778 0
67.4564 -3.37623 0
67.8522 -0.178966 0
67.7802 0.0786856 0
68.3237 4.75252 0
68.6366 -4.73262 0
70.4582 -0.551381 0
69.5763 0.630643 0
70.7412 5.58798 0
67.7354 0.149231 0
65.7658 3.5895 0
65.229 -1.52971 0
67.7652 -0.109542 0
67.8183 -0.227805 0
67.6546 -2.03804 0
67.8444 0.396939 0
67.8101 0.11191 0
67.7397 0.0108151 0
65.0265 1.78067 0
68.7851 0.305869 0
68.1788 1.05914 0
68.3917 -0.745734 0
69.354 -0.384123 0
72.6835 -0.693476 0
72.7156 -4.98939 0
74.2603 4.68702 0
72.578 0.241265 0
67.7756 1.15274 0
69.3336 5.32058 0
68.3456 -4.29528 0
68.7262 -1.26864 0
67.1923 -0.738836 0
65.7136 0.210866 0
67.0454 4.16701 0
67.9738 1.31602 0
67.8672 -0.95667 0
65.768 -2.75062 0
76.317 -2.8724 0
74.2016 -0.361475 0
73.8911 0.326969 0
76.8033 1.36517 0
67.8658 -0.34051 0
67.8194 -0.0274973 0
67.8092 0.0747441 0
68.5433 0.506207 0
71.2504 0.421538 0
71.1788 2.53832 0
69.9528 -1.11967 0
71.8132 -0.988777 0
70.5384 3.15356 0
72.54 5.08791 0
71.5262 -5.19616 0
70.7618 -1.09165 0
73.217 0.816502 0
74.2315 2.70836 0
73.0072 -1.58212 0
73.5894 -0.0129482 0
75.2249 0.00197505 0
77.0622 -0.339221 0
75.4618 -1.42879 0
74.396 0.00493871 0
74.7091 0.0109649 0
76.3533 1.91597 0
74.3856 -0.755639 0
74.4408 -0.0964881 0
68.5999 -0.803517 0
68.1991 -0.294196 0
68.1348 0.805834 0
68.7187 0.638404 0
68.0291 0.767346 0
67.8017 0.122127 0
67.791 -0.0589864 0
67.9949 -0.5407 0
74.4491 0.299558 0
75.2602 0.356943 0
74.9686 -0.525294 0
74.9347 -0.0557886 0
66.531 -0.38735 0
67.7585 -0.0720059 0
67.5329 -0.163339 0
67.778 -0.168464 0
67.7733 0.114083 0
67.7879 0.526481 0
74.5901 2.45258 0
74.0214 0.316719 0
74.2616 -0.00647828 0
74.4947 -0.0773276 0
70.2408 -0.0135966 0
69.7949 -1.59426 0
70.5628 1.1249 0
69.7047 0.286058 0
67.933 2.83856 0
67.6784 5.03608 0
67.4102 -3.76879 0
68.1419 -1.80315 0
68.4271 -1.16567 0
67.6078 -1.22989 0
68.0198 3.20288 0
68.0854 1.55129 0
74.481 -0.137767 0
74.493 -0.063549 0
75.0895 0.0778905 0
75.8929 1.01492 0
69.0985 -3.15841 0
69.7803 -3.07273 0
69.7115 3.03183 0
70.2162 5.6055 0
68.6498 -2.25132 0
69.3825 -1.27766 0
69.3627 2.02624 0
68.7792 1.03218 0
73.0596 1.64058 0
73.31 0.174786 0
74.0811 -0.00592907 0
74.585 -0.91017 0
67.471 0.769693 0
67.7652 0.0178376 0
74.2902 -0.0743003 0
74.4355 -0.342361 0
74.9568 0.824651 0
74.2472 0.12299 0
68.4557 -0.526835 0
68.1382 -0.704015 0
68.7187 1.17576 0
68.0273 0.404326 0
67.8156 -0.0811084 0
67.9971 -0.289952 0
67.8569 0.133707 0
67.7933 0.0772306 0
65.3082 1.51606 0
67.2458 1.20482 0
73.4967 -1.7848 0
75.6057 -3.59174 0
76.5912 2.6241 0
73.4178 1.16498 0
67.1555 -1.21188 0
65.724 -1.5574 0
72.9536 -0.019752 0
72.6346 -0.275408 0
72.9694 -0.0388862 0
73.0372 -0.827571 0
73.758 -1.42839 0
73.3979 -0.160899 0
72.2038 -1.14093 0
72.5316 -0.00465141 0
74.1847 -0.116713 0
74.4243 -0.243118 0
73.6141 0.694383 0
73.5448 0.0085843 0
67.7726 0.0991097 0
67.6546 0.315126 0
66.8559 0.539219 0
65.4443 0.930678 0
67.72 -0.093836 0
67.7664 -0.092167 0
67.4619 0.28398 0
67.4559 -0.307776 0
76.7788 -1.31033 0
74.9676 -0.884319 0
75.4797 0.537394 0
76.3013 -0.989886 0
67.925 -0.0222389 0
67.9851 -0.138774 0
67.8174 0.0283045 0
68.0786 0.141433 0
73.8233 -0.19406 0
73.9795 -0.584922 0
73.1038 0.297727 0
72.9786 0.00762348 0
72.9409 0.00898448 0
73.4024 -0.106207 0
71.4865 -0.315473 0
71.8539 -0.08775 0
68.2196 -0.45935 0
68.8409 -1.19093 0
68.4719 1.09375 0
68.1803 0.845711 0
68.7813 1.9426 0
67.6537 1.32686 0
67.9965 -1.06124 0
68.4343 -1.54966 0
75.6801 0.0850318 0
76.3591 1.4418 0
74.4836 -0.992173 0
74.9825 -0.399862 0
67.7049 -0.546585 0
67.7806 -0.687457 0
67.7792 0.654959 0
67.4863 0.970459 0
73.3093 0.483864 0
72.4911 0.231636 0
71.5661 0.0754797 0
71.3456 0.352338 0
72.6714 2.48159 0
74.2626 4.13108 0
73.3951 -4.91584 0
72.9914 -1.89353 0
66.1003 -1.91096 0
67.6199 -1.96933 0
72.1515 -1.75449 0
72.4809 -0.628851 0
71.6819 0.285149 0
73.5923 1.58256 0
65.9526 3.42433 0
67.117 2.04443 0
72.9371 -0.0698496 0
73.1511 -0.85051 0
72.9739 -0.125244 0
72.9598 -0.030886 0
74.4232 -0.189965 0
74.3654 -0.809783 0
74.5735 0.752342 0
73.9078 0.11976 0
71.3162 0.870663 0
70.1827 0.227242 0
70.7428 -0.201101 0
71.1406 -1.78537 0
74.7793 1.01938 0
74.7357 2.22306 0
74.2643 -0.161436 0
74.5451 -0.37063 0
70.5616 -2.20722 0
71.1952 -1.03461 0
70.932 1.67201 0
72.7975 3.61878 0
72.0962 0.720921 0
71.8641 0.116449 0
71.5706 0.115387 0
71.7373 0.80745 0
72.002 -0.16989 0
72.3314 0.000130628 0
72.9984 -0.046043 0
73.3274 -0.109899 0
69.207 0.322736 0
69.0567 0.848024 0
69.1806 -0.616595 0
69.6937 -0.196315 0
70.3012 1.80731 0
69.2191 1.27118 0
68.7102 -1.57482 0
68.1835 -1.5967 0
75.2595 -0.10163 0
75.1204 -0.0624384 0
74.547 0.00753309 0
74.8237 -0.168493 0
69.253 2.52597 0
69.5494 1.67433 0
68.7515 -0.45767 0
68.6484 -0.17461 0
68.5471 0.179163 0
69.0484 0.566951 0
66.9529 -0.337639 0
67.6051 -0.673591 0
76.5429 -1.90532 0
75.0792 -1.05214 0
75.041 1.67472 0
76.8535 0.674878 0
67.8269 -0.369527 0
67.8023 -0.0834048 0
67.7606 0.112874 0
67.8596 0.432963 0
68.028 0.0414927 0
68.046 0.354622 0
68.1696 -0.161471 0
68.2671 -0.00835184 0
66.2526 0.139195 0
64.6026 0.494245 0
72.5352 1.85031 0
74.7821 1.27752 0
73.9576 -1.40651 0
74.3953 -2.83524 0
67.6724 1.50724 0
67.3639 0.909226 0
67.7856 -0.0152749 0
67.6411 0.0188594 0
69.8814 4.52477 0
68.2479 2.81193 0
69.2713 -2.46744 0
68.6787 -4.92519 0
67.4567 0.58566 0
67.7099 0.227526 0
73.5455 0.925868 0
73.3552 2.05524 0
74.6268 -0.504313 0
74.1855 -0.120151 0
71.5951 0.05298 0
71.7573 -0.0386047 0
72.8651 0.017041 0
72.9351 0.530082 0
75.2835 -1.13984 0
75.5527 -0.129498 0
76.0741 0.220977 0
77.0028 0.180131 0
67.5328 0.144167 0
67.1685 -0.890863 0
67.9795 0.919583 0
68.1513 1.32681 0