# vtk DataFile Version 3.0
Unstructured Grid for Triangles
ASCII
DATASET UNSTRUCTURED_GRID
POINTS 29612 DOUBLE
-0.000272397 1.23686e-05 0
-0.000295789 9.5838e-06 0
-0.000277865 -3.1235e-06 0
0.002024 0.0005 0
0.00203975 0.00049875 0
0.00205 0.0005 0
0.00203975 -0.00049875 0
0.002024 -0.0005 0
0.00205 -0.0005 0
0.0020295 0.0004975 0
0.0020295 -0.0004975 0
0.00201925 0.00049625 0
0.00201925 -0.00049625 0
-0.000529747 -0.000479887 0
-0.00055 -0.0005 0
-0.000524 -0.0005 0
-0.000505983 -0.000484325 0
-0.000498 -0.0005 0
-0.000472 -0.0005 0
-0.000483864 -0.000487761 0
-0.000446 -0.0005 0
-0.000459 -0.000484239 0
-0.000429453 -0.000424878 0
-0.000447486 -0.000420717 0
-0.000441829 -0.000436609 0
-0.000512578 -0.000462101 0
-0.000493078 -0.000453594 0
-0.00050706 -0.000439006 0
-0.000419243 -0.000477545 0
-0.000440307 -0.000471837 0
-0.00043691 -0.000486724 0
-0.000516129 -0.000420948 0
-0.000495355 -0.000415432 0
-0.000511646 -0.00040128 0
-0.000394697 -0.000481197 0
-0.000406302 -0.000455143 0
-0.000537257 -0.000388197 0
-0.000531099 -0.000407297 0
-0.000523982 -0.000388328 0
-0.000370063 -0.000472956 0
-0.000368 -0.0005 0
-0.00035308 -0.000485302 0
-0.0005072 -0.00037867 0
-0.000485506 -0.000383975 0
-0.000490949 -0.000359622 0
-0.000337127 -0.000484331 0
-0.000316 -0.0005 0
-0.000326495 -0.00047415 0
-0.00055 -0.00035 0
-0.000531201 -0.000370361 0
-0.000528367 -0.000346817 0
-0.000363898 -0.000448809 0
-0.000383315 -0.000460336 0
-3.26269e-05 -0.000415503 0
-5.99662e-05 -0.000409556 0
-5.46944e-05 -0.000429488 0
-0.000529747 0.000479887 0
-0.00055 0.0005 0
-0.00055 0.000475 0
-0.00055 0.00045 0
-0.000534834 0.000429171 0
-0.000526943 0.000442611 0
-0.000534026 0.000460176 0
-0.000531099 0.000407297 0
-0.000511672 0.000401178 0
-0.000516129 0.000420948 0
-0.000524 0.0005 0
-0.000505983 0.000484325 0
-0.000531201 0.000370361 0
-0.0005072 0.00037867 0
-0.000523982 0.000388328 0
-0.00048341 0.000469132 0
-0.000483679 0.000487539 0
-0.000528367 0.000346817 0
-0.00055 0.000325 0
-0.000525657 0.000328474 0
-0.000498 0.0005 0
-0.000530382 0.0003125 0
-0.000419243 0.000477545 0
-0.000440015 0.00047335 0
-0.000425917 0.000463678 0
-0.000435138 0.000262661 0
-0.000414982 0.000274462 0
-0.000435654 0.000285217 0
-0.000459 0.000484239 0
-0.000436852 0.000487027 0
-0.000446 0.0005 0
-0.000533308 0.000292503 0
-0.00055 0.000275 0
-0.000523377 0.000276953 0
-0.000425282 0.000446352 0
-0.000409368 0.000435728 0
-0.000406302 0.000455143 0
0.002009 0.000495 0
0.001998 0.0005 0
0.00199875 0.00049375 0
0.0019885 0.0004925 0
0.001972 0.0005 0
0.00197825 0.00049125 0
0.001968 0.00049 0
0.00195775 0.00048875 0
0.001946 0.0005 0
0.0019475 0.0004875 0
0.00193725 0.00048625 0
0.00192 0.0005 0
0.001927 0.000485 0
0.00191675 0.00048375 0
0.0019065 0.0004825 0
0.001894 0.0005 0
0.00189625 0.00048125 0
0.001886 0.00048 0
0.001868 0.0005 0
0.00187575 0.00047875 0
0.0018655 0.0004775 0
0.00185515 0.00048575 0
0.001842 0.0005 0
0.001845 0.000475 0
0.00185525 0.00047625 0
0.00182564 0.0004829 0
0.001816 0.0005 0
0.0018245 0.0004725 0
0.00183475 0.00047375 0
0.00181425 0.00047125 0
0.00180295 0.000482657 0
0.00179 0.0005 0
0.00179375 0.00046875 0
0.001804 0.00047 0
0.00178168 0.000480619 0
0.001764 0.0005 0
0.00177325 0.00046625 0
0.0017835 0.0004675 0
0.00176428 0.000476631 0
0.001763 0.000465 0
0.001738 0.0005 0
0.001751 0.000484164 0
0.00175275 0.00046375 0
0.00174025 0.000475632 0
0.001712 0.0005 0
0.00172615 0.000478449 0
0.001722 0.00046 0
0.00173225 0.00046125 0
0.0017015 0.0004575 0
0.00171243 0.00047381 0
0.00169554 0.000479999 0
0.001686 0.0005 0
0.00167507 0.000479751 0
0.00168498 0.000464861 0
0.00166 0.0005 0
0.0016558 0.000471459 0
0.00167135 0.000462887 0
0.001681 0.000455 0
0.0016605 0.0004525 0
0.00167075 0.00045375 0
0.00164059 0.000461599 0
0.0016394 0.000479551 0
0.00162881 0.00046615 0
0.00162975 0.00044875 0
0.00165025 0.00045125 0
0.00164 0.00045 0
0.00161754 0.000458641 0
0.00161722 0.000478101 0
0.00159956 0.000458294 0
0.00160925 0.00044625 0
0.0016195 0.0004475 0
0.00157667 0.000460322 0
0.00158875 0.00044375 0
0.00159194 0.000480155 0
0.001599 0.000445 0
0.0015785 0.0004425 0
0.00155808 0.000456757 0
0.00155647 0.000476701 0
0.00154059 0.000466642 0
0.00153756 0.000450083 0
0.00154839 0.000450446 0
0.00156825 0.00044125 0
0.00151954 0.000480508 0
0.00154052 0.00048477 0
0.00153 0.0005 0
0.00154775 0.00043875 0
0.00152142 0.000456625 0
0.00152821 0.000445753 0
0.0015375 0.0004375 0
0.001504 0.0005 0
0.00149644 0.000485168 0
0.00151787 0.000443178 0
0.00152725 0.00043625 0
0.00150675 0.00043375 0
0.001517 0.000435 0
0.00148119 0.000450887 0
0.00148072 0.000475756 0
0.00146584 0.000463516 0
0.00150008 0.00046396 0
0.00149351 0.00044543 0
0.0015061 0.000446252 0
0.001476 0.00043 0
0.00148625 0.00043125 0
0.00146492 0.000482975 0
0.00144888 0.000473562 0
0.00146676 0.000444259 0
0.00145255 0.000453656 0
0.00145652 0.000438669 0
0.00141401 0.000479821 0
0.001426 0.0005 0
0.0014 0.0005 0
0.00144374 0.000438862 0
0.0014555 0.0004275 0
0.001435 0.000425 0
0.00144525 0.00042625 0
0.00142746 0.000438121 0
0.00141288 0.000443191 0
0.00141707 0.000432778 0
0.0013921 0.000438992 0
0.00140355 0.00045932 0
0.00138302 0.00045922 0
0.00142912 0.000458869 0
0.00140592 0.000430037 0
0.0014145 0.0004225 0
0.00136458 0.00045869 0
0.00137106 0.00044063 0
0.001394 0.00042 0
0.00138259 0.000428915 0
0.00137484 0.000477094 0
0.00139166 0.000478902 0
0.0013586 0.000478984 0
0.00133449 0.000478649 0
0.00134717 0.000461848 0
0.00137256 0.000425134 0
0.00135323 0.000424541 0
0.00136325 0.00041625 0
0.00136122 0.00042876 0
0.00131206 0.000447284 0
0.00133168 0.000456738 0
0.00131773 0.000465243 0
0.00134756 0.000440343 0
0.00132747 0.000436463 0
0.00133483 0.000426786 0
0.00131081 0.00041867 0
0.00132382 0.000422815 0
0.00131507 0.00043122 0
0.00131059 0.000480123 0
0.0013325 0.0004125 0
0.0012915 0.0004075 0
0.0012982 0.000418199 0
0.00128915 0.000426216 0
0.00126366 0.000447574 0
0.00127331 0.000430908 0
0.00128781 0.000444872 0
0.00125336 0.000428376 0
0.00130218 0.000431077 0
0.00127894 0.000416344 0
0.00124774 0.000469608 0
0.00127668 0.000464148 0
0.00126591 0.00048331 0
0.00126722 0.000418415 0
0.00125768 0.000411931 0
0.00124326 0.000413546 0
0.0012505 0.0004025 0
0.00122408 0.000450118 0
0.00120276 0.000447432 0
0.0012139 0.000432235 0
0.00124336 0.000444132 0
0.00123056 0.000427595 0
0.00122977 0.000409049 0
0.0012185 0.000469217 0
0.00122676 0.000485947 0
0.00120525 0.000486094 0
0.00121479 0.000413153 0
0.00119547 0.000424221 0
0.00120249 0.000407448 0
0.00119925 0.00039625 0
0.00119346 0.000406114 0
0.00117479 0.000447279 0
0.00114726 0.000445259 0
0.0011571 0.000427814 0
0.00119443 0.000466611 0
0.00117447 0.000421596 0
0.00118421 0.00040752 0
0.00117409 0.000404437 0
0.00116775 0.000470073 0
0.001179 0.0004855 0
0.00115473 0.000484802 0
0.0011685 0.0003925 0
0.00117875 0.00039375 0
0.00115454 0.000400551 0
0.001148 0.00039 0
0.00115825 0.00039125 0
0.00111703 0.000423398 0
0.00113786 0.000426731 0
0.00112589 0.000443871 0
0.00113234 0.000406671 0
0.00114754 0.000413371 0
0.001106 0.000442326 0
0.00109703 0.000424261 0
0.0011275 0.0003875 0
0.00113775 0.00038875 0
0.00110211 0.000480875 0
0.00108244 0.000471951 0
0.00109312 0.000458413 0
0.00111755 0.000399116 0
0.0010944 0.000392972 0
0.00110415 0.000405876 0
0.00108839 0.000407536 0
0.00106472 0.000476905 0
0.00107274 0.000457868 0
0.00108011 0.000392415 0
0.00106885 0.000404365 0
0.00106625 0.000388708 0
0.00105286 0.000419254 0
0.00105055 0.000395469 0
0.00104215 0.000439764 0
0.00106346 0.000440629 0
0.00100945 0.000451249 0
0.00102825 0.00045614 0
0.00101189 0.000468452 0
0.00107625 0.00038125 0
0.00105575 0.00037875 0
0.001066 0.00038 0
0.00103352 0.000476905 0
0.00101803 0.00048465 0
0.00103685 0.000389398 0
0.0010245 0.00038825 0
0.00103525 0.00037625 0
0.00101092 0.000399779 0
0.00101267 0.000382619 0
0.00101382 0.00042025 0
0.00103187 0.000405286 0
0.00103359 0.000424605 0
0.000987383 0.00045447 0
0.000999411 0.000435161 0
0.0009744 0.000433145 0
0.0010045 0.0003725 0
0.00101475 0.00037375 0
0.000970845 0.000465215 0
0.000952614 0.000467664 0
0.000961768 0.000449944 0
0.00099729 0.000387704 0
0.000978901 0.00039598 0
0.000985823 0.000381492 0
0.000962289 0.000393709 0
0.000974259 0.000381279 0
0.00097375 0.00036875 0
0.000963045 0.000376631 0
0.000958 0.0005 0
0.000932 0.0005 0
0.000947542 0.00048457 0
0.000949675 0.000385245 0
0.000936214 0.000389472 0
0.000940006 0.000374906 0
0.000966411 0.000412573 0
0.000944241 0.000407079 0
0.000903569 0.000424993 0
0.000921701 0.000402409 0
0.000927439 0.000427744 0
0.000889795 0.000409067 0
0.000903071 0.00040248 0
0.000925447 0.000377721 0
0.00093275 0.00036375 0
0.000907708 0.000387127 0
0.000911303 0.000370839 0
0.000911933 0.000455145 0
0.000930678 0.000473279 0
0.000911886 0.000482603 0
0.000887724 0.000388076 0
0.000899595 0.000375116 0
0.000902 0.00036 0
0.000889241 0.00036954 0
0.000836977 0.000459472 0
0.000836223 0.000483578 0
0.000820467 0.000474142 0
0.000871227 0.000403557 0
0.000861 0.000355 0
0.000868368 0.000365714 0
0.00085484 0.00036588 0
0.000847735 0.000402845 0
0.000823121 0.000421599 0
0.000826582 0.000398147 0
0.000846943 0.00042454 0
0.000838832 0.000378613 0
0.000835569 0.000363808 0
0.000844098 0.00036291 0
0.00085075 0.00035375 0
0.000851465 0.000477164 0
0.00083025 0.00035125 0
0.000822824 0.000368659 0
0.00081446 0.000357362 0
0.000805884 0.000371794 0
0.000753471 0.000477524 0
0.000738313 0.000473927 0
0.000739102 0.000461526 0
0.00079826 0.000358588 0
0.000788607 0.000376287 0
0.000781733 0.000357987 0
0.000816783 0.000384471 0
0.000807975 0.000404095 0
0.000752138 0.000404775 0
0.000767682 0.000417043 0
0.000749617 0.000421803 0
0.000752903 0.000384008 0
0.000738293 0.000393136 0
0.000772614 0.000394048 0
0.00076863 0.000371878 0
0.000765995 0.000354121 0
0.000779 0.000345 0
0.00071811 0.000453059 0
0.000738069 0.000437967 0
0.000752085 0.000365972 0
0.000728123 0.000374583 0
0.000741845 0.000354664 0
[...]
CELL_DATA 58684
VECTORS velocity DOUBLE
65.3317 0.650008 0
74.7476 -0.000327728 0
73.1533 0.000621567 0
74.5512 0.0138132 0
73.2244 0.0112811 0
74.4454 0.0596087 0
73.2832 0.0286633 0
67.7962 0.000594899 0
67.8013 -0.00769359 0
67.8529 -0.000333003 0
67.9199 -0.00100531 0
67.954 -0.273615 0
67.8171 -0.0524164 0
68.0164 -0.0851087 0
67.8069 -0.0778404 0
68.1542 -0.112109 0
67.7989 -0.0231375 0
68.3672 -0.0943441 0
67.8361 -0.161654 0
68.6847 -0.0595984 0
67.8078 -0.0221397 0
68.3504 -0.223373 0
72.6545 -1.32931 0
67.7881 0.00211828 0
67.783 0.0207314 0
67.7882 0.0079578 0
67.8009 0.0651761 0
67.7909 0.0092009 0
67.7993 0.0841711 0
67.8438 0.0320364 0
67.8114 0.0603486 0
67.8124 0.0230971 0
67.7723 0.0560456 0
68.0943 0.13247 0
67.9007 0.965118 0
67.9638 0.0608293 0
67.8285 0.0855959 0
68.1432 0.289123 0
74.3817 0.0387039 0
74.264 0.00106511 0
74.0469 0.101342 0
74.0257 0.0843933 0
73.911 0.00135795 0
73.6824 0.104435 0
73.6542 0.142484 0
73.6198 0.0930398 0
73.5009 0.00361275 0
73.3237 0.169358 0
73.3143 0.135183 0
73.214 0.00555252 0
72.9921 0.176957 0
72.9853 0.181209 0
72.9564 0.106513 0
72.8669 0.00856445 0
72.7298 0.184182 0
72.7298 0.130109 0
72.6568 0.0110018 0
72.4678 0.209601 0
72.4719 0.178507 0
72.4506 0.0953795 0
72.3591 0.00143874 0
72.2969 0.16714 0
72.2437 0.0884243 0
72.1516 0.00253672 0
72.0931 0.143909 0
72.0813 0.113185 0
72.0384 0.0753568 0
72.0296 -0.000399242 0
71.9944 0.0765001 0
71.9673 0.0452696 0
71.9508 -0.00288874 0
71.9311 0.0465576 0
71.9125 0.024997 0
71.8978 0.0299036 0
71.8934 -0.00442592 0
71.8792 -0.00846591 0
71.8803 -0.00408666 0
71.8739 -0.00768252 0
71.8687 -0.0384417 0
71.8725 -0.0423358 0
71.865 -0.0372584 0
71.8746 -0.0069954 0
71.8739 -0.0250841 0
71.8687 -0.0571948 0
71.8784 -0.0266591 0
71.8792 -0.0390713 0
71.892 -0.061339 0
71.8982 -0.0650624 0
71.8787 -0.0172158 0
71.8813 -0.0219401 0
71.8867 -0.0410225 0
71.8852 -0.028162 0
71.8457 0.018783 0
71.8534 -0.00267496 0
71.8681 0.0153695 0
71.7908 0.0648304 0
71.7914 0.0666595 0
71.8156 0.0746139 0
71.7374 0.128476 0
71.6802 0.127564 0
71.5484 0.230335 0
71.7096 0.134067 0
71.4752 0.0812744 0
71.5924 0.241491 0
71.4483 0.252163 0
71.5274 0.284247 0
71.3236 0.0969153 0
71.45 0.313089 0
71.3579 0.384319 0
71.1398 0.25136 0
71.1563 0.249483 0
71.2872 0.348113 0
71.1211 0.4595 0
71.0106 0.20284 0
70.8853 0.404278 0
70.9182 0.264428 0
70.6453 0.00913891 0
70.9076 0.452243 0
70.7997 0.519602 0
70.559 0.411015 0
70.4627 0.261796 0
70.6325 0.251748 0
70.5476 0.448014 0
70.3562 0.210122 0
70.3854 0.414145 0
70.424 0.130095 0
70.3087 0.337924 0
70.2732 0.0843201 0
70.2693 0.369737 0
70.2171 0.320781 0
70.2125 0.0847389 0
70.1678 0.171179 0
70.2354 0.0731174 0
70.1433 0.102843 0
70.2229 0.0552018 0
70.1313 0.167404 0
70.1434 -0.0393533 0
70.2726 -0.0675584 0
70.3269 -0.151825 0
70.2193 -0.0204095 0
70.1742 -0.076105 0
70.3058 -0.0658487 0
70.2765 -0.206779 0
70.328 -0.275845 0
70.5773 -0.243629 0
70.3861 -0.153754 0
70.3321 -0.251653 0
70.4217 -0.3467 0
70.4919 -0.067114 0
70.671 -0.450399 0
70.6851 -0.514267 0
70.9597 -0.270264 0
70.7168 -0.264784 0
70.7758 -0.423834 0
70.8659 -0.534644 0
70.7974 -0.0721649 0
70.903 -0.628536 0
71.1064 -0.633431 0
71.214 -0.366489 0
71.1914 -0.461902 0
71.3502 -0.303682 0
71.2688 -0.590911 0
71.2818 -0.0859414 0
71.306 -0.518291 0
71.5599 -0.371771 0
71.3828 -0.0701667 0
71.6898 -0.306928 0
71.7265 -0.187845 0
71.6319 -0.0601413 0
71.5057 0.0252083 0
71.7253 -0.30629 0
71.7976 -0.263171 0
71.4962 0.00827898 0
71.8516 0.0126315 0
71.8431 0.102734 0
71.7809 0.0577286 0
71.5476 0.0831573 0
71.5128 0.148136 0
71.8821 0.182748 0
71.4493 0.130544 0
71.8148 0.313441 0
71.7773 0.42373 0
71.7689 0.517515 0
71.3706 0.007347 0
71.5853 0.575123 0
71.705 0.405534 0
71.4178 0.366312 0
71.3287 0.410294 0
71.5489 0.680917 0
71.3987 0.669519 0
71.2722 0.110002 0
71.3306 0.606731 0
71.3042 0.744008 0
71.2555 0.685971 0
71.0599 0.0454085 0
71.2331 0.456046 0
70.9711 0.616482 0
71.0033 0.247492 0
71.0399 0.216683 0
70.9585 0.456086 0
70.9106 0.556463 0
71.0554 0.0587949 0
70.8399 0.347685 0
70.7941 0.25217 0
71.2428 -0.0663593 0
70.8434 -0.0348845 0
70.9214 0.166322 0
71.0847 -0.21589 0
71.099 -0.402692 0
70.9318 -0.153876 0
70.7564 -0.203547 0
71.2512 -0.22062 0
70.9281 -0.512026 0
70.873 -0.508932 0
71.131 -0.846537 0
71.6097 -0.00315224 0
71.2717 -0.73404 0
71.1695 -1.00116 0
71.4254 -0.224145 0
71.2626 -1.13415 0
71.7571 -0.637436 0
71.3792 -1.21794 0
72.1617 -0.36549 0
71.7525 -1.14784 0
71.6578 -1.40417 0
72.009 -0.212465 0
72.0275 -1.51154 0
72.4764 -1.47741 0
72.2051 -1.22377 0
72.4022 -0.666216 0
72.573 -1.78213 0
72.6941 -0.550679 0
73.0226 -0.079183 0
72.3879 -1.27268 0
72.8702 -1.66042 0
73.1386 -1.85432 0
73.1081 -0.400429 0
73.3366 -1.35946 0
73.7614 -1.41047 0
73.2434 -0.132775 0
73.976 -1.16429 0
73.8876 -1.4501 0
73.4366 -1.02829 0
73.4967 -0.400981 0
73.6766 -0.420459 0
74.1148 -1.20367 0
73.769 0.00626186 0
74.2643 -1.18109 0
74.4448 -0.923693 0
74.3782 -1.0388 0
74.0529 -0.167328 0
74.3023 -0.634275 0
74.5957 -0.443219 0
74.0957 0.00695767 0
74.6388 -0.433032 0
74.6204 -0.225942 0
74.3774 -0.360026 0
74.1848 -0.167952 0
74.6636 -0.241016 0
74.3396 -0.176327 0
74.3815 -0.0163263 0
74.5895 -0.180313 0
74.669 -0.0762991 0
74.657 -0.0548966 0
74.4852 -0.0546357 0
74.7073 -0.0853594 0
74.6563 -0.0432631 0
74.5661 -0.0178759 0
74.6533 -0.033098 0
74.6741 -0.107169 0
74.83 -0.105725 0
74.6528 0.00770198 0
74.7548 -0.222586 0
74.9479 -0.0452849 0
75.0873 -0.0448573 0
74.8381 -0.226104 0
74.8964 -0.190066 0
74.9764 -0.361813 0
74.8438 0.0481959 0
74.9263 -0.403157 0
75.2449 -0.263306 0
75.3249 -0.536697 0
74.7326 0.0212549 0
75.696 -0.311607 0
75.7217 -0.152065 0
74.4946 0.0648974 0
75.8078 -0.637313 0
76.1346 -0.274186 0
75.2058 0.386687 0
74.8456 0.182359 0
75.5405 0.0531666 0
76.3189 -0.00197563 0
74.6168 0.126082 0
76.4331 0.425536 0
76.4584 -0.21375 0
76.4832 -0.0607327 0
74.3982 0.611786 0
75.8597 0.756172 0
76.7234 0.642761 0
74.3373 0.105353 0
76.6146 0.940337 0
76.5045 1.15084 0
76.2615 2.22276 0
73.2652 0.184962 0
76.9341 1.80637 0
75.5379 1.39461 0
74.1674 0.71256 0
74.1841 1.4812 0
76.8617 2.12396 0
76.4595 2.74946 0
73.5764 0.312395 0
76.4177 3.16158 0
73.326 0.00349569 0
73.3602 0.00088496 0
73.4383 0.0416261 0
73.4477 0.0271343 0
73.5029 0.00237958 0
73.5898 0.0453586 0
73.5963 0.0491109 0
73.6154 0.026153 0
73.6603 0.0029363 0
73.7074 0.0513821 0
73.7091 0.0316448 0
73.7412 0.00451019 0
73.7828 0.0413733 0
73.7807 0.0344912 0
73.7864 0.015258 0
73.8023 0.00357709 0
73.8095 0.0198723 0
73.8077 0.00676416 0
73.812 0.00352719 0
73.7938 -0.0107849 0
73.7872 -0.0242484 0
73.7304 -0.0614613 0
73.781 -0.0190074 0
73.7051 -0.0528522 0
73.6231 -0.103987 0
73.6953 -0.0730598 0
73.5789 -0.144402 0
73.5277 -0.110094 0
73.4288 -0.20102 0
73.5433 -0.102384 0
73.3594 -0.143313 0
73.216 -0.274411 0
73.3447 -0.125177 0
73.0092 -0.338903 0
72.9895 -0.321966 0
72.9073 -0.235364 0
73.1012 -0.170104 0
72.8825 -0.263966 0
72.6611 -0.234889 0
72.807 -0.17882 0
72.429 -0.449279 0
72.4727 -0.174866 0
72.3088 -0.267841 0
72.4979 -0.243258 0
72.2615 -0.361996 0
71.9675 -0.365687 0
71.8802 -0.204278 0
72.0279 -0.353813 0
71.7537 -0.378604 0
71.7357 -0.390692 0
71.5165 -0.157485 0
71.5929 -0.218248 0
71.4625 -0.281892 0
71.3371 -0.367814 0
71.3098 -0.149725 0
71.261 -0.236805 0
71.2068 -0.293136 0
71.1552 -0.0972859 0
71.2688 -0.192805 0
71.117 -0.226357 0
71.1122 -0.178977 0
71.0831 -0.0569599 0
71.0354 -0.0322918 0
71.0372 -0.0505357 0
71.2286 -0.0816687 0
71.0034 -0.0260326 0
70.9962 0.0603001 0
71 0.0132968 0
71.0047 -0.0071939 0
71.0034 0.10132 0
71.0096 0.0889347 0
71.0512 0.0728524 0
71.0028 0.0803356 0
71.0405 0.147396 0
71.0771 0.182573 0
71.0238 0.0262851 0
71.0646 0.128678 0
71.1679 0.22976 0
71.0896 0.103039 0
71.197 0.19362 0
71.2747 0.205153 0
71.1987 0.155282 0
71.2431 0.0479776 0
71.297 0.156227 0
71.3673 0.198444 0
71.2521 0.0351007 0
71.4023 0.158625 0
71.2891 0.114409 0
71.4587 0.0723852 0
71.322 0.0786401 0
71.4597 0.0826914 0
71.5056 -0.0631186 0
71.3221 -0.0129659 0
71.3973 0.00205481 0
71.4967 -0.124876 0
71.4269 -0.130138 0
71.3443 -0.0287511 0
71.494 -0.197862 0
71.4692 -0.300368 0
71.2512 -0.0777642 0
71.2661 -0.157871 0
71.3857 -0.34502 0
71.3871 -0.448775 0
71.2962 -0.193294 0
71.3158 -0.48199 0
71.2522 -0.573377 0
70.9596 -0.178361 0
71.1545 -0.319883 0
71.0873 -0.682696 0
71.0437 -0.573548 0
71.0694 -0.15943 0
71.0053 -0.651895 0
70.886 -0.663721 0
70.7638 -0.227551 0
70.9027 -0.565351 0
70.6813 -0.756126 0
70.6727 -0.519675 0
70.8515 -0.178265 0
70.607 -0.632464 0
70.4653 -0.598204 0
70.612 -0.181209 0
70.4943 -0.382173 0
70.5363 -0.158 0
70.4297 -0.295011 0
70.5651 -0.226494 0
70.3574 -0.448531 0
70.3042 -0.190982 0
70.4919 -0.0466346 0
70.338 -0.180071 0
70.3305 0.023675 0
70.5361 0.0550712 0
70.3819 -0.188604 0
70.3729 0.110447 0
70.3529 0.191448 0
70.5299 0.0178581 0
70.3842 0.262393 0
70.5376 0.537206 0
70.5528 0.501129 0
70.7059 0.146281 0
70.735 0.628782 0
70.6197 0.148706 0
70.441 0.258618 0
70.6767 0.641234 0
70.9249 0.859335 0
70.9491 0.926177 0
70.6705 0.00552151 0
71.2417 1.13301 0
71.2674 1.09179 0
71.3899 0.912642 0
71.3678 0.39781 0
71.6129 0.386261 0
71.4275 1.061 0
71.0449 0.243736 0
71.7867 1.11086 0
71.7465 1.09754 0
71.8005 0.910689 0
71.5799 0.231325 0
72.0071 0.91371 0
72.394 1.09113 0
71.8891 0.313027 0
71.849 0.395154 0
72.2054 0.776145 0
72.6719 0.814639 0
71.6608 0.262001 0
72.7089 0.833163 0
72.7862 0.628766 0
72.0924 0.0919003 0
72.9188 0.376026 0
72.9733 0.314635 0
72.8153 0.0589719 0
72.3339 0.0851311 0
72.4157 0.156937 0
72.8816 0.186894 0
72.2288 0.150627 0
72.9974 0.000714218 0
73.0122 -0.102773 0
72.8291 -0.228489 0
72.3149 0.00306078 0
72.9091 -0.408568 0
72.9017 -0.489117 0
72.6681 -0.122293 0
72.6168 -0.312353 0
72.5328 -0.0958097 0
72.8074 -0.479766 0
72.4439 -0.0206796 0
72.6628 -0.686967 0
72.645 -0.641887 0
72.3883 -0.0307558 0
72.5346 -0.473365 0
72.3391 -0.526995 0
72.4583 -0.563707 0
72.4496 -0.0286011 0
72.1416 -0.367944 0
72.134 -0.363433 0
72.5447 -0.283339 0
72.4286 -0.031594 0
72.4573 -0.0781559 0
72.0966 -0.110134 0
72.5397 0.0213297 0
72.1057 0.151081 0
72.2219 0.308696 0
72.4737 0.00341944 0
72.3655 0.348896 0
72.2735 0.799036 0
72.3732 0.967202 0
72.839 0.237442 0
72.4784 1.1655 0
72.6185 1.39016 0
72.4646 0.299818 0
73.121 1.08345 0
73.0807 0.310298 0
72.9084 1.68887 0
73.2504 0.115419 0
73.1599 1.85131 0
73.3726 1.94554 0
73.0033 0.0744636 0
73.4638 1.69936 0
74.0235 2.31648 0
74.4682 2.31615 0
73.6245 0.366677 0
74.2194 2.2054 0
74.8429 2.55678 0
73.7127 1.46501 0
75.1784 1.58838 0
73.9885 0.334934 0
74.5634 2.22537 0
74.3185 0.139682 0
75.5148 2.56786 0
75.7015 2.28559 0
74.0112 0.116634 0
75.5825 1.71731 0
76.1297 1.94812 0
76.5866 1.78563 0
75.0836 0.16071 0
76.8228 1.55476 0
76.9525 1.32745 0
75.455 0.206789 0
77.0241 1.38483 0
76.4851 0.495781 0
75.1841 0.55213 0
74.8526 0.399588 0
77.2417 1.015 0
77.1794 0.412211 0
77.5614 0.288247 0
75.0357 -0.00216213 0
77.1335 -0.100716 0
77.5849 -0.453436 0
75.2961 0.0203809 0
76.94 -0.117744 0
77.6006 -0.952871 0
76.6944 -0.638902 0
75.5765 -0.126433 0
77.5127 -1.22701 0
77.4282 -1.50501 0
76.3716 -0.115722 0
76.3676 -1.70137 0
75.0665 -1.50119 0
77.3238 -1.55546 0
75.0497 -0.187688 0
77.2208 -2.23594 0
75.9613 3.7184 0
76.3729 3.14451 0
72.6662 1.08361 0
75.9325 3.7558 0
74.5113 3.71531 0
75.4599 4.25437 0
72.9615 0.407452 0
74.9397 4.51699 0
74.2542 4.64241 0
72.1918 0.569706 0
74.2827 4.86159 0
77.1763 -2.52288 0
75.1611 -0.101466 0
77.0367 -2.75694 0
76.335 -3.07755 0
75.8881 -2.63389 0
74.7561 -0.149908 0
76.439 -3.48256 0
73.4781 4.66376 0
75.9505 -4.27331 0
74.702 -0.802478 0
75.788 -4.14269 0
75.1171 -4.78154 0
71.5147 1.43173 0
74.9085 -4.70327 0
75.7448 -2.49419 0
75.3626 -4.23961 0
74.0782 -3.13403 0
73.3468 -0.513306 0
74.7453 -4.32443 0
74.2476 -4.59778 0
73.1069 4.94095 0
74.2719 -4.64702 0
73.9159 -0.26169 0
73.6132 -4.87492 0
73.1863 -5.3157 0
72.9137 -0.333467 0
72.4875 -5.42899 0
72.8216 -3.96001 0
71.43 -0.402918 0
71.8632 -5.51044 0
71.8014 -3.05934 0
72.8929 -2.36946 0
72.2653 -4.73926 0
71.4786 -4.98763 0
73.4127 2.4457 0
70.8859 0.323389 0
72.8595 1.66416 0
71.8405 -0.0302683 0
71.1696 -5.35888 0
72.9391 4.73589 0
70.7438 0.238083 0
72.3422 4.07271 0
70.5909 -5.32009 0
71.5292 -1.07922 0
70.0149 -3.81091 0
72.5235 5.40888 0
70.0055 1.36012 0
72.4962 5.3654 0
70.862 4.76068 0
70.1542 0.270227 0
71.4808 4.90753 0
70.3877 -3.99208 0
71.208 -0.319015 0
70.0181 -5.43118 0
70.0644 -5.24724 0
71.6928 5.23401 0
70.3468 5.20285 0
69.6851 0.0178729 0
71.0906 5.26954 0
69.5258 3.44592 0
69.7409 1.56404 0
69.369 -5.37717 0
69.7926 -0.681816 0
69.6168 -5.2836 0
69.5235 5.52267 0
68.9316 -4.94138 0
69.2053 -0.648079 0
69.019 -2.05982 0
68.1774 -4.70481 0
70.005 -2.5304 0
68.024 -4.51891 0
68.8846 -0.167246 0
67.4058 -4.32413 0
68.9078 1.99549 0
69.2136 0.303173 0
69.1858 4.72406 0
68.8004 0.0736695 0
69.0468 5.48036 0
68.8902 5.24212 0
68.5664 0.133678 0
68.293 4.66187 0
68.4217 0.104674 0
68.277 -4.04098 0
68.8938 -0.328289 0
69.4711 4.04924 0
67.86 0.611682 0
68.0813 4.46058 0
67.3371 -4.32553 0
68.9824 -0.145621 0
66.1955 -3.5824 0
67.8322 -0.190008 0
66.6835 -3.58281 0
68.4095 1.84984 0
67.79 0.0472144 0
68.7373 -3.23075 0
67.7912 -0.0231903 0
66.275 -3.34291 0
67.5848 4.09801 0
67.2472 -2.53563 0
67.8038 -0.0725754 0
66.4697 -2.81045 0
68.0355 2.30285 0
66.487 1.6926 0
67.1822 3.60394 0
67.6703 -0.553148 0
66.4123 -3.13674 0
67.7492 0.275758 0
67.2106 4.69899 0
67.6573 -1.32373 0
67.7908 -0.0156275 0
66.1824 -2.81713 0
67.0795 4.316 0
67.799 0.607988 0
66.8555 3.48574 0
66.7257 3.44623 0
67.7754 0.270484 0
66.1566 3.13604 0
65.6276 -2.44602 0
67.7927 -0.100961 0
65.3808 -2.45665 0
66.9368 -0.965609 0
67.7988 -0.0485516 0
65.0778 -1.54372 0
66.1773 3.82407 0
67.7814 0.56084 0
66.9247 2.54558 0
65.4292 -1.32291 0
67.751 -0.113186 0
64.9706 -1.21 0
65.3143 2.93632 0
67.7796 0.246463 0
65.5514 2.8047 0
65.7558 2.34837 0
67.7925 0.0351916 0
65.2189 2.50371 0
65.8044 -0.612106 0
67.7222 -0.252613 0
65.3018 -0.506443 0
64.5172 -0.162812 0
67.2657 -0.341191 0
64.6874 -0.0649229 0
67.1064 0.996034 0
67.7624 0.0928311 0
66.6395 2.00672 0
65.121 2.07763 0
67.6937 0.154835 0
64.6865 1.51398 0
67.5004 0.0490795 0
67.7917 -0.0207153 0
64.5933 0.278824 0
64.9184 0.391553 0
67.7861 0.0156091 0
66.4402 0.594072 0
65.1902 0.800972 0
67.7884 0.00362033 0
67.3519 -3.51674 0
67.8366 -0.21706 0
67.784 0.0451557 0
68.4444 4.81412 0
68.5602 -4.91789 0
70.4422 -0.597884 0
69.5659 0.665913 0
70.9476 5.56593 0
67.7487 0.206981 0
65.836 3.68605 0
65.1665 -1.54672 0
67.7688 -0.0605747 0
67.7903 -0.300946 0
67.5434 -2.12667 0
67.8233 0.676335 0
67.8393 0.105065 0
67.7818 0.0621901 0
65.0396 1.86391 0
68.763 0.326548 0
68.1785 1.206 0
68.2924 -0.775957 0
69.2425 -0.427033 0
72.9355 -0.753508 0
72.8352 -5.29766 0
74.5014 4.60125 0
72.7355 0.246162 0
67.7659 1.36748 0
69.5025 5.3346 0
68.2537 -4.47088 0
68.6055 -1.35143 0
67.1215 -0.694513 0
65.6755 0.269273 0
67.122 4.25923 0
67.9703 1.48543 0
67.7891 -1.00512 0
65.6849 -2.82231 0
76.8704 -3.14639 0
74.5892 -0.37787 0
74.1169 0.354629 0
76.8072 1.36481 0
67.8228 -0.51113 0
67.8017 -0.0107908 0
67.7806 0.0701488 0
68.5384 0.55255 0
71.3259 0.423188 0
71.2733 2.53976 0
69.8832 -1.22484 0
71.9503 -1.07299 0
70.6369 3.1694 0
72.7704 5.03175 0
71.5628 -5.47189 0
70.7731 -1.17571 0
73.4102 0.831392 0
74.4094 2.68608 0
73.2687 -1.70942 0
73.9394 -0.0133622 0
75.3972 0.0352688 0
77.6133 0.0409266 0
75.4379 -0.624548 0
74.6519 0.0103422 0
74.3784 -0.00155107 0
75.7906 2.36962 0
74.7249 -0.125405 0
74.5954 0.000645832 0
68.4955 -0.830232 0
68.1283 -0.352611 0
68.1422 0.970013 0
68.7082 0.678581 0
68.0263 1.0087 0
67.7983 0.10649 0
67.7913 -0.0213236 0
67.9352 -0.699504 0
74.6903 0.366086 0
75.4112 0.536724 0
75.3633 -0.519867 0
75.229 -0.0537011 0
66.4663 -0.308206 0
67.7944 -0.030348 0
67.5329 -0.147733 0
67.8065 -0.148024 0
67.7903 0.101515 0
67.7962 0.838392 0
73.5422 2.0765 0
73.4139 0.219045 0
74.2198 0.00897215 0
74.6472 -0.510185 0
70.2007 -0.0132694 0
69.7198 -1.73917 0
70.6071 1.13871 0
69.7011 0.297837 0
67.9632 2.9666 0
67.8124 5.08908 0
67.3103 -3.91036 0
68.0375 -1.87482 0
68.323 -1.20386 0
67.517 -1.22655 0
68.0643 3.31736 0
68.0901 1.66604 0
74.6511 -0.0207915 0
74.7075 0.00716481 0
74.99 0.0809613 0
75.5167 1.24689 0
69.0151 -3.33643 0
69.7213 -3.25645 0
69.7749 3.08267 0
70.4103 5.59112 0
68.5442 -2.40811 0
69.2809 -1.4025 0
69.3873 2.10443 0
68.7641 1.09224 0
72.2562 0.613183 0
72.7035 0.0731644 0
73.5771 0.00453934 0
73.5675 -1.56066 0
67.4537 0.974175 0
67.7843 0.0324312 0
74.2819 -0.033876 0
74.6652 -0.0963969 0
74.448 0.755769 0
73.7413 0.103179 0
68.3712 -0.558294 0
68.0643 -0.791142 0
68.7035 1.24154 0
68.0278 0.621298 0
67.8129 -0.0403797 0
67.9486 -0.448112 0
67.8259 0.211913 0
67.7899 0.0451886 0
65.3143 1.60104 0
67.2257 1.35287 0
73.7979 -1.92508 0
76.032 -3.91162 0
76.708 2.52737 0
73.5903 1.18187 0
67.0698 -1.19717 0
65.6446 -1.57914 0
72.4121 -0.0398461 0
72.5583 -0.590982 0
72.1614 0.0363207 0
72.9342 -0.439277 0
72.2919 -1.5171 0
72.2426 -0.176489 0
70.9528 -0.69465 0
71.4115 -0.00296123 0
73.7938 -0.168218 0
74.0109 -0.496257 0
72.9751 0.435668 0
72.9193 -0.00360879 0
67.799 0.115922 0
67.6774 0.531639 0
66.8212 0.660147 0
65.4323 1.00179 0
67.7636 -0.0650431 0
67.7855 -0.0424768 0
67.4614 0.440119 0
67.41 -0.269221 0
77.4607 -1.2664 0
75.391 -0.90302 0
75.5971 0.697282 0
76.1752 -0.459853 0
67.8596 -0.0371253 0
67.9299 -0.231654 0
67.7953 0.0212196 0
68.056 0.216249 0
72.8781 -0.258071 0
72.8702 -0.774549 0
72.5467 0.0710425 0
72.4274 -0.0235406 0
72.0098 0.214735 0
72.4868 0.621715 0
70.7888 0.298478 0
71.0593 0.00884023 0
68.1662 -0.553653 0
68.7301 -1.26497 0
68.4607 1.16129 0
68.1777 0.970352 0
68.7982 2.04926 0
67.6488 1.49888 0
67.9088 -1.09029 0
68.3219 -1.62884 0
75.7569 0.231104 0
76.0181 1.90298 0
74.7738 -0.238624 0
75.1669 -0.0237404 0
67.6542 -0.629291 0
67.7165 -0.784303 0
67.7846 0.958377 0
67.4678 1.17488 0
72.1729 1.20015 0
71.4435 0.357251 0
71.1496 0.109914 0
71.0757 0.640873 0
72.8132 2.47673 0
74.4728 4.07021 0
73.5676 -5.25099 0
73.2346 -2.04511 0
66.0165 -1.95501 0
67.5078 -2.04622 0
72.3059 -1.89724 0
72.6974 -0.686338 0
71.7679 0.28887 0
73.7782 1.59756 0
66.0142 3.52149 0
67.1215 2.15984 0
71.7591 -0.0681991 0
71.7867 -0.825351 0
72.4696 -0.117928 0
72.3673 -0.0106194 0
74.8038 -0.191081 0
74.7666 -0.84917 0
74.784 0.832407 0
74.159 0.126977 0
71.3898 0.875845 0
70.1974 0.231803 0
70.7471 -0.2178 0
71.1878 -1.92045 0
74.2196 0.948819 0
73.8014 1.97923 0
74.6555 -0.144935 0
74.7478 -0.070077 0
70.5522 -2.36011 0
71.2548 -1.11324 0
70.9938 1.6798 0
72.9648 3.59316 0
70.9359 0.791204 0
70.9064 0.122386 0
71.2694 0.12794 0
71.726 0.489091 0
71.0946 -0.0456054 0
71.2786 -5.43302e-05 0
72.2945 0.0372273 0
72.4577 0.453537 0
69.1849 0.343478 0
69.039 0.898686 0
69.0644 -0.675463 0
69.6039 -0.216144 0
70.338 1.84979 0
69.2099 1.3471 0
68.588 -1.69283 0
68.0806 -1.65156 0
75.4523 -0.0515703 0
75.3477 -0.0332212 0
74.7871 0.087785 0
75.0302 0.0772364 0
69.2924 2.61266 0
69.5544 1.75515 0
68.6417 -0.482945 0
68.5444 -0.179924 0
68.5339 0.192686 0
69.026 0.60496 0
66.8912 -0.25824 0
67.5363 -0.716774 0
77.1735 -2.01992 0
75.5304 -1.1 0
75.2017 1.70138 0
76.8084 0.772123 0
67.8052 -0.536647 0
67.8033 -0.0303479 0
67.757 0.104665 0
67.8646 0.725164 0
68.0087 0.0732447 0
68.0244 0.524848 0
68.1076 -0.21658 0
68.2099 -0.00689269 0
66.2122 0.209383 0
64.5865 0.549747 0
72.6785 1.85653 0
74.959 1.32884 0
74.3215 -1.505 0
74.7639 -3.05819 0
67.663 1.659 0
67.3371 1.07934 0
67.7907 0.00240878 0
67.6801 0.0939015 0
70.0142 4.53569 0
68.2786 2.93947 0
69.1794 -2.64681 0
68.6054 -5.11613 0
67.4574 0.81088 0
67.7318 0.372381 0
72.8914 0.565816 0
72.4407 1.14685 0
74.0429 -1.19801 0
73.7622 -0.163916 0
71.1485 0.116 0
71.0543 0.0134702 0
71.9543 0.0993637 0
71.7834 0.930305 0
75.2988 -0.414315 0
75.6402 0.186255 0
76.2076 0.461685 0
77.3651 0.697558 0
67.5453 0.273083 0
67.0879 -0.84752 0
67.9717 1.16973 0
68.1511 1.4503 0