# vtk DataFile Version 3.0
Unstructured Grid for Triangles
ASCII
DATASET UNSTRUCTURED_GRID
POINTS 29612 DOUBLE
-0.000272397 1.23686e-05 0
-0.000295789 9.5838e-06 0
-0.000277865 -3.1235e-06 0
0.002024 0.0005 0
0.00203975 0.00049875 0
0.00205 0.0005 0
0.00203975 -0.00049875 0
0.002024 -0.0005 0
0.00205 -0.0005 0
0.0020295 0.0004975 0
0.0020295 -0.0004975 0
0.00201925 0.00049625 0
0.00201925 -0.00049625 0
-0.000529747 -0.000479887 0
-0.00055 -0.0005 0
-0.000524 -0.0005 0
-0.000505983 -0.000484325 0
-0.000498 -0.0005 0
-0.000472 -0.0005 0
-0.000483864 -0.000487761 0
-0.000446 -0.0005 0
-0.000459 -0.000484239 0
-0.000429453 -0.000424878 0
-0.000447486 -0.000420717 0
-0.000441829 -0.000436609 0
-0.000512578 -0.000462101 0
-0.000493078 -0.000453594 0
-0.00050706 -0.000439006 0
-0.000419243 -0.000477545 0
-0.000440307 -0.000471837 0
-0.00043691 -0.000486724 0
-0.000516129 -0.000420948 0
-0.000495355 -0.000415432 0
-0.000511646 -0.00040128 0
-0.000394697 -0.000481197 0
-0.000406302 -0.000455143 0
-0.000537257 -0.000388197 0
-0.000531099 -0.000407297 0
-0.000523982 -0.000388328 0
-0.000370063 -0.000472956 0
-0.000368 -0.0005 0
-0.00035308 -0.000485302 0
-0.0005072 -0.00037867 0
-0.000485506 -0.000383975 0
-0.000490949 -0.000359622 0
-0.000337127 -0.000484331 0
-0.000316 -0.0005 0
-0.000326495 -0.00047415 0
-0.00055 -0.00035 0
-0.000531201 -0.000370361 0
-0.000528367 -0.000346817 0
-0.000363898 -0.000448809 0
-0.000383315 -0.000460336 0
-3.26269e-05 -0.000415503 0
-5.99662e-05 -0.000409556 0
-5.46944e-05 -0.000429488 0
-0.000529747 0.000479887 0
-0.00055 0.0005 0
-0.00055 0.000475 0
-0.00055 0.00045 0
-0.000534834 0.000429171 0
-0.000526943 0.000442611 0
-0.000534026 0.000460176 0
-0.000531099 0.000407297 0
-0.000511672 0.000401178 0
-0.000516129 0.000420948 0
-0.000524 0.0005 0
-0.000505983 0.000484325 0
-0.000531201 0.000370361 0
-0.0005072 0.00037867 0
-0.000523982 0.000388328 0
-0.00048341 0.000469132 0
-0.000483679 0.000487539 0
-0.000528367 0.000346817 0
-0.00055 0.000325 0
-0.000525657 0.000328474 0
-0.000498 0.0005 0
-0.000530382 0.0003125 0
-0.000419243 0.000477545 0
-0.000440015 0.00047335 0
-0.000425917 0.000463678 0
-0.000435138 0.000262661 0
-0.000414982 0.000274462 0
-0.000435654 0.000285217 0
-0.000459 0.000484239 0
-0.000436852 0.000487027 0
-0.000446 0.0005 0
-0.000533308 0.000292503 0
-0.00055 0.000275 0
-0.000523377 0.000276953 0
-0.000425282 0.000446352 0
-0.000409368 0.000435728 0
-0.000406302 0.000455143 0
0.002009 0.000495 0
0.001998 0.0005 0
0.00199875 0.00049375 0
0.0019885 0.0004925 0
0.001972 0.0005 0
0.00197825 0.00049125 0
0.001968 0.00049 0
0.00195775 0.00048875 0
0.001946 0.0005 0
0.0019475 0.0004875 0
0.00193725 0.00048625 0
0.00192 0.0005 0
0.001927 0.000485 0
0.00191675 0.00048375 0
0.0019065 0.0004825 0
0.001894 0.0005 0
0.00189625 0.00048125 0
0.001886 0.00048 0
0.001868 0.0005 0
0.00187575 0.00047875 0
0.0018655 0.0004775 0
0.00185515 0.00048575 0
0.001842 0.0005 0
0.001845 0.000475 0
0.00185525 0.00047625 0
0.00182564 0.0004829 0
0.001816 0.0005 0
0.0018245 0.0004725 0
0.00183475 0.00047375 0
0.00181425 0.00047125 0
0.00180295 0.000482657 0
0.00179 0.0005 0
0.00179375 0.00046875 0
0.001804 0.00047 0
0.00178168 0.000480619 0
0.001764 0.0005 0
0.00177325 0.00046625 0
0.0017835 0.0004675 0
0.00176428 0.000476631 0
0.001763 0.000465 0
0.001738 0.0005 0
0.001751 0.000484164 0
0.00175275 0.00046375 0
0.00174025 0.000475632 0
0.001712 0.0005 0
0.00172615 0.000478449 0
0.001722 0.00046 0
0.00173225 0.00046125 0
0.0017015 0.0004575 0
0.00171243 0.00047381 0
0.00169554 0.000479999 0
0.001686 0.0005 0
0.00167507 0.000479751 0
0.00168498 0.000464861 0
0.00166 0.0005 0
0.0016558 0.000471459 0
0.00167135 0.000462887 0
0.001681 0.000455 0
0.0016605 0.0004525 0
0.00167075 0.00045375 0
0.00164059 0.000461599 0
0.0016394 0.000479551 0
0.00162881 0.00046615 0
0.00162975 0.00044875 0
0.00165025 0.00045125 0
0.00164 0.00045 0
0.00161754 0.000458641 0
0.00161722 0.000478101 0
0.00159956 0.000458294 0
0.00160925 0.00044625 0
0.0016195 0.0004475 0
0.00157667 0.000460322 0
0.00158875 0.00044375 0
0.00159194 0.000480155 0
0.001599 0.000445 0
0.0015785 0.0004425 0
0.00155808 0.000456757 0
0.00155647 0.000476701 0
0.00154059 0.000466642 0
0.00153756 0.000450083 0
0.00154839 0.000450446 0
0.00156825 0.00044125 0
0.00151954 0.000480508 0
0.00154052 0.00048477 0
0.00153 0.0005 0
0.00154775 0.00043875 0
0.00152142 0.000456625 0
0.00152821 0.000445753 0
0.0015375 0.0004375 0
0.001504 0.0005 0
0.00149644 0.000485168 0
0.00151787 0.000443178 0
0.00152725 0.00043625 0
0.00150675 0.00043375 0
0.001517 0.000435 0
0.00148119 0.000450887 0
0.00148072 0.000475756 0
0.00146584 0.000463516 0
0.00150008 0.00046396 0
0.00149351 0.00044543 0
0.0015061 0.000446252 0
0.001476 0.00043 0
0.00148625 0.00043125 0
0.00146492 0.000482975 0
0.00144888 0.000473562 0
0.00146676 0.000444259 0
0.00145255 0.000453656 0
0.00145652 0.000438669 0
0.00141401 0.000479821 0
0.001426 0.0005 0
0.0014 0.0005 0
0.00144374 0.000438862 0
0.0014555 0.0004275 0
0.001435 0.000425 0
0.00144525 0.00042625 0
0.00142746 0.000438121 0
0.00141288 0.000443191 0
0.00141707 0.000432778 0
0.0013921 0.000438992 0
0.00140355 0.00045932 0
0.00138302 0.00045922 0
0.00142912 0.000458869 0
0.00140592 0.000430037 0
0.0014145 0.0004225 0
0.00136458 0.00045869 0
0.00137106 0.00044063 0
0.001394 0.00042 0
0.00138259 0.000428915 0
0.00137484 0.000477094 0
0.00139166 0.000478902 0
0.0013586 0.000478984 0
0.00133449 0.000478649 0
0.00134717 0.000461848 0
0.00137256 0.000425134 0
0.00135323 0.000424541 0
0.00136325 0.00041625 0
0.00136122 0.00042876 0
0.00131206 0.000447284 0
0.00133168 0.000456738 0
0.00131773 0.000465243 0
0.00134756 0.000440343 0
0.00132747 0.000436463 0
0.00133483 0.000426786 0
0.00131081 0.00041867 0
0.00132382 0.000422815 0
0.00131507 0.00043122 0
0.00131059 0.000480123 0
0.0013325 0.0004125 0
0.0012915 0.0004075 0
0.0012982 0.000418199 0
0.00128915 0.000426216 0
0.00126366 0.000447574 0
0.00127331 0.000430908 0
0.00128781 0.000444872 0
0.00125336 0.000428376 0
0.00130218 0.000431077 0
0.00127894 0.000416344 0
0.00124774 0.000469608 0
0.00127668 0.000464148 0
0.00126591 0.00048331 0
0.00126722 0.000418415 0
0.00125768 0.000411931 0
0.00124326 0.000413546 0
0.0012505 0.0004025 0
0.00122408 0.000450118 0
0.00120276 0.000447432 0
0.0012139 0.000432235 0
0.00124336 0.000444132 0
0.00123056 0.000427595 0
0.00122977 0.000409049 0
0.0012185 0.000469217 0
0.00122676 0.000485947 0
0.00120525 0.000486094 0
0.00121479 0.000413153 0
0.00119547 0.000424221 0
0.00120249 0.000407448 0
0.00119925 0.00039625 0
0.00119346 0.000406114 0
0.00117479 0.000447279 0
0.00114726 0.000445259 0
0.0011571 0.000427814 0
0.00119443 0.000466611 0
0.00117447 0.000421596 0
0.00118421 0.00040752 0
0.00117409 0.000404437 0
0.00116775 0.000470073 0
0.001179 0.0004855 0
0.00115473 0.000484802 0
0.0011685 0.0003925 0
0.00117875 0.00039375 0
0.00115454 0.000400551 0
0.001148 0.00039 0
0.00115825 0.00039125 0
0.00111703 0.000423398 0
0.00113786 0.000426731 0
0.00112589 0.000443871 0
0.00113234 0.000406671 0
0.00114754 0.000413371 0
0.001106 0.000442326 0
0.00109703 0.000424261 0
0.0011275 0.0003875 0
0.00113775 0.00038875 0
0.00110211 0.000480875 0
0.00108244 0.000471951 0
0.00109312 0.000458413 0
0.00111755 0.000399116 0
0.0010944 0.000392972 0
0.00110415 0.000405876 0
0.00108839 0.000407536 0
0.00106472 0.000476905 0
0.00107274 0.000457868 0
0.00108011 0.000392415 0
0.00106885 0.000404365 0
0.00106625 0.000388708 0
0.00105286 0.000419254 0
0.00105055 0.000395469 0
0.00104215 0.000439764 0
0.00106346 0.000440629 0
0.00100945 0.000451249 0
0.00102825 0.00045614 0
0.00101189 0.000468452 0
0.00107625 0.00038125 0
0.00105575 0.00037875 0
0.001066 0.00038 0
0.00103352 0.000476905 0
0.00101803 0.00048465 0
0.00103685 0.000389398 0
0.0010245 0.00038825 0
0.00103525 0.00037625 0
0.00101092 0.000399779 0
0.00101267 0.000382619 0
0.00101382 0.00042025 0
0.00103187 0.000405286 0
0.00103359 0.000424605 0
0.000987383 0.00045447 0
0.000999411 0.000435161 0
0.0009744 0.000433145 0
0.0010045 0.0003725 0
0.00101475 0.00037375 0
0.000970845 0.000465215 0
0.000952614 0.000467664 0
0.000961768 0.000449944 0
0.00099729 0.000387704 0
0.000978901 0.00039598 0
0.000985823 0.000381492 0
0.000962289 0.000393709 0
0.000974259 0.000381279 0
0.00097375 0.00036875 0
0.000963045 0.000376631 0
0.000958 0.0005 0
0.000932 0.0005 0
0.000947542 0.00048457 0
0.000949675 0.000385245 0
0.000936214 0.000389472 0
0.000940006 0.000374906 0
0.000966411 0.000412573 0
0.000944241 0.000407079 0
0.000903569 0.000424993 0
0.000921701 0.000402409 0
0.000927439 0.000427744 0
0.000889795 0.000409067 0
0.000903071 0.00040248 0
0.000925447 0.000377721 0
0.00093275 0.00036375 0
0.000907708 0.000387127 0
0.000911303 0.000370839 0
0.000911933 0.000455145 0
0.000930678 0.000473279 0
0.000911886 0.000482603 0
0.000887724 0.000388076 0
0.000899595 0.000375116 0
0.000902 0.00036 0
0.000889241 0.00036954 0
0.000836977 0.000459472 0
0.000836223 0.000483578 0
0.000820467 0.000474142 0
0.000871227 0.000403557 0
0.000861 0.000355 0
0.000868368 0.000365714 0
0.00085484 0.00036588 0
0.000847735 0.000402845 0
0.000823121 0.000421599 0
0.000826582 0.000398147 0
0.000846943 0.00042454 0
0.000838832 0.000378613 0
0.000835569 0.000363808 0
0.000844098 0.00036291 0
0.00085075 0.00035375 0
0.000851465 0.000477164 0
0.00083025 0.00035125 0
0.000822824 0.000368659 0
0.00081446 0.000357362 0
0.000805884 0.000371794 0
0.000753471 0.000477524 0
0.000738313 0.000473927 0
0.000739102 0.000461526 0
0.00079826 0.000358588 0
0.000788607 0.000376287 0
0.000781733 0.000357987 0
0.000816783 0.000384471 0
0.000807975 0.000404095 0
0.000752138 0.000404775 0
0.000767682 0.000417043 0
0.000749617 0.000421803 0
0.000752903 0.000384008 0
0.000738293 0.000393136 0
0.000772614 0.000394048 0
0.00076863 0.000371878 0
0.000765995 0.000354121 0
0.000779 0.000345 0
0.00071811 0.000453059 0
0.000738069 0.000437967 0
0.000752085 0.000365972 0
0.000728123 0.000374583 0
0.000741845 0.000354664 0
[...]
CELL_DATA 58684
VECTORS velocity DOUBLE
65.0227 -0.0378859 0
68.5204 -0.00193358 0
68.5193 0.00013906 0
68.5206 -0.0381429 0
68.5259 0.0472495 0
68.4904 -0.0117018 0
68.4807 0.00508027 0
67.9521 -0.0318601 0
67.9819 -0.227729 0
68.1907 -0.0209856 0
68.0693 -0.0195049 0
67.9137 0.0145545 0
68.19 -0.535583 0
67.7911 -0.0338153 0
68.1302 -1.05971 0
67.6501 -0.139569 0
67.9291 -1.45739 0
67.7515 -0.159831 0
68.0005 -0.735396 0
68.2349 -0.0820138 0
67.9139 -1.35897 0
67.8105 -0.396414 0
71.9491 0.15577 0
67.7909 0.206727 0
67.7986 0.742178 0
67.7854 0.378087 0
68.0433 1.38668 0
67.9793 0.228431 0
67.9813 1.55416 0
68.2145 0.165405 0
67.8082 1.27731 0
68.1588 0.122205 0
67.868 1.29572 0
67.7052 0.0527941 0
67.8239 -0.882927 0
67.9205 -0.00145028 0
67.6793 0.886712 0
67.717 0.191871 0
68.5406 0.0214082 0
68.5286 -0.0173527 0
68.4254 -0.0363633 0
68.4057 -0.00387047 0
68.3416 -0.0429091 0
68.1665 -0.0380683 0
68.0881 -0.0590445 0
68.0086 -0.108193 0
67.8483 -0.0885002 0
67.5922 -0.0602842 0
67.4973 -0.132655 0
67.1273 -0.142392 0
66.7111 -0.0307326 0
66.4939 -0.0881784 0
66.2834 -0.252028 0
65.8043 -0.210951 0
65.3839 -0.0801999 0
65.1967 -0.186259 0
64.6726 -0.188843 0
64.2856 -0.107945 0
64.0745 -0.105942 0
63.8288 -0.161886 0
63.5631 -0.100854 0
63.5056 -0.144013 0
63.2219 -0.0758892 0
63.1799 -0.0261761 0
63.2232 -0.134106 0
63.2051 -0.0674503 0
63.3441 -0.0731954 0
63.5027 0.0305311 0
63.5033 -0.0448697 0
63.766 -0.00217275 0
64.1483 0.0474973 0
64.0922 -0.00120977 0
64.3259 0.0931282 0
64.5805 -0.0633124 0
65.0365 0.0871338 0
65.1106 0.0544678 0
65.2824 0.00542875 0
65.7236 0.0981291 0
65.7254 0.174401 0
66.2533 0.238097 0
65.8702 0.195713 0
66.3026 0.0910163 0
66.4863 0.109514 0
66.3996 0.288557 0
66.7897 0.193844 0
66.7254 0.33536 0
66.6155 0.420247 0
66.7483 0.455444 0
67.1301 0.389155 0
67.1377 0.504468 0
66.9952 0.432309 0
67.072 0.527165 0
67.294 0.405152 0
67.2251 0.409797 0
67.2969 0.569425 0
67.4204 0.509157 0
67.4793 0.362076 0
67.4138 0.550273 0
67.4822 0.571182 0
67.6327 0.37128 0
67.7255 0.389938 0
67.5705 0.456615 0
67.8297 0.0950743 0
67.6651 0.45067 0
67.7099 0.400321 0
67.7189 0.43001 0
67.9172 0.0735575 0
67.7199 0.412461 0
67.7314 0.407112 0
67.9424 0.144874 0
67.8974 0.202593 0
67.8581 0.282788 0
67.849 0.280004 0
67.9658 0.0702199 0
67.8972 0.198743 0
67.9492 0.115586 0
68.0245 0.00949264 0
67.8676 0.206071 0
67.8992 0.182023 0
67.9196 0.0862842 0
68.0052 0.0106076 0
68.015 0.0275025 0
67.9424 0.0749867 0
68.0495 -0.018245 0
67.9722 0.0357868 0
68.0533 -0.0122695 0
67.9648 0.00554629 0
68.1309 -0.0207373 0
67.9913 0.00498043 0
68.0412 -0.0413805 0
68.2507 -0.0745455 0
68.1238 -0.0707938 0
68.1929 -0.0531823 0
68.2166 -0.104756 0
68.248 -0.0297441 0
68.1316 -0.0810038 0
68.3687 -0.123509 0
68.5698 -0.0937657 0
68.6838 -0.182781 0
68.4086 -0.12444 0
68.4679 -0.124643 0
68.6453 -0.113811 0
68.7066 -0.163103 0
68.8016 -0.145339 0
69.369 -0.108374 0
68.9215 -0.129983 0
68.8612 -0.135866 0
69.0374 -0.204385 0
69.2905 0.00309816 0
69.5451 -0.165431 0
69.6346 -0.191233 0
70.3274 -0.0771682 0
69.7056 -0.214677 0
69.8296 -0.156617 0
70.0118 -0.207873 0
70.106 0.00818378 0
70.0953 -0.235401 0
70.4987 -0.224085 0
70.8812 -0.196355 0
70.6829 -0.188647 0
71.158 -0.182444 0
70.8314 -0.218784 0
71.2893 -0.0479608 0
70.9079 -0.18055 0
71.2615 -0.16332 0
71.4214 -0.0613755 0
71.4253 -0.208493 0
71.4335 -0.176593 0
71.4732 -0.113279 0
71.2909 -0.0762314 0
71.4513 -0.195876 0
71.5084 -0.223586 0
71.3298 -0.0131067 0
71.439 -0.23773 0
71.2626 -0.239683 0
71.3557 -0.178502 0
71.1441 -0.167544 0
70.9914 -0.0660636 0
71.2917 -0.255777 0
70.5647 -0.148145 0
70.9564 -0.316032 0
70.7737 -0.312713 0
70.7541 -0.327423 0
70.3645 -0.0808047 0
70.181 -0.366108 0
70.5565 -0.267144 0
69.8022 -0.301585 0
69.389 -0.2911 0
70.0543 -0.416323 0
69.6676 -0.386972 0
69.7227 -0.102224 0
69.4566 -0.416962 0
69.3899 -0.396006 0
69.2677 -0.37234 0
68.2271 -0.0951804 0
69.1326 -0.331736 0
68.7536 -0.449855 0
68.2685 -0.261641 0
68.4841 -0.264758 0
68.4425 -0.335662 0
68.5532 -0.367588 0
68.336 -0.110093 0
68.2396 -0.332237 0
68.1593 -0.341144 0
67.5717 -0.0687471 0
67.96 -0.230812 0
68.1316 -0.317828 0
67.7121 -0.16084 0
67.7131 -0.111815 0
67.8499 -0.195055 0
67.9656 -0.189629 0
67.6208 -0.0673749 0
67.9253 -0.109679 0
67.9097 -0.131354 0
68.0009 0.00182177 0
67.788 0.0228327 0
67.862 -0.0403972 0
68.0229 0.0664712 0
67.646 -0.0391484 0
68.0693 0.118633 0
68.0473 0.0604565 0
68.1234 0.124717 0
68.3963 0.108557 0
68.3736 0.233107 0
68.3106 0.256705 0
68.1546 -0.0149512 0
68.5121 0.29181 0
68.8103 0.383232 0
68.5528 0.230414 0
68.6619 0.209294 0
68.8471 0.372074 0
69.0448 0.162387 0
69.7138 0.0401379 0
68.8183 0.366005 0
69.0065 0.397192 0
69.1186 0.353776 0
69.6632 0.183852 0
69.3914 0.337263 0
69.5105 0.286713 0
70.0986 0.0330108 0
69.7051 0.15149 0
69.5283 0.16437 0
69.6643 0.230055 0
70.2714 0.130443 0
70.3274 0.0945854 0
69.6819 -0.0368922 0
71.172 0.0420273 0
69.774 -0.168685 0
69.8497 -0.258757 0
69.832 -0.270128 0
71.4057 -0.167175 0
70.2961 -0.37913 0
70.1797 -0.712292 0
71.8983 0.0180305 0
70.1676 -0.950663 0
70.5684 -1.21282 0
70.773 -0.403954 0
71.5444 -0.301937 0
70.3096 -1.26261 0
71.5101 -0.420181 0
72.5049 -0.139606 0
70.7835 -1.18376 0
70.4392 -1.69327 0
70.5628 -1.78098 0
72.4081 -0.521769 0
71.2592 -1.81855 0
70.6272 -2.01678 0
72.7491 -0.396099 0
70.7957 -2.37807 0
71.031 -2.62247 0
71.7649 -1.81627 0
72.9943 -0.0605211 0
71.3502 -2.8953 0
72.595 -1.58584 0
72.5833 -1.88608 0
71.6079 -2.74224 0
71.8062 -2.47962 0
71.8436 -3.05599 0
73.1025 -1.05502 0
71.7474 -3.18146 0
72.5225 -2.81715 0
72.457 -3.35417 0
72.9973 -0.337924 0
73.0319 -3.12667 0
73.1658 -2.92536 0
72.9984 -0.177375 0
73.1006 -3.47623 0
73.5568 -3.03999 0
73.4068 -1.74658 0
73.1362 -1.08924 0
73.2418 -2.36289 0
73.8423 -2.78237 0
73.0191 -0.296758 0
74.1999 -2.35831 0
74.0538 -2.99939 0
74.116 -2.83811 0
72.9336 -0.746611 0
73.9064 -2.02461 0
74.6111 -2.12022 0
72.8083 -0.16308 0
74.5438 -1.82442 0
74.4337 -1.57775 0
74.5883 -0.386663 0
72.1618 -0.0958894 0
75.0979 -0.823608 0
73.9689 -1.15952 0
72.776 -0.6247 0
72.8774 -0.506958 0
75.1287 -0.459064 0
74.9626 0.262751 0
72.3253 -0.140109 0
74.974 0.730995 0
68.526 -0.0167722 0
68.5168 0.0157735 0
68.4128 0.0341555 0
68.3968 0.00775291 0
68.3415 0.042532 0
68.164 0.0362311 0
68.0905 0.0604461 0
68.0195 0.0981182 0
67.8511 0.088985 0
67.5914 0.0506494 0
67.4988 0.113663 0
67.1238 0.142452 0
66.7242 0.0468487 0
66.5042 0.107573 0
66.2952 0.234384 0
65.8048 0.211242 0
65.3891 0.0936178 0
65.1983 0.18068 0
64.669 0.189447 0
64.2787 0.101895 0
64.0698 0.100391 0
63.6139 0.160672 0
63.8234 0.16171 0
63.3619 0.107117 0
63.2673 0.177583 0
63.2083 0.0781131 0
63.2022 0.0659397 0
63.3338 0.0732199 0
63.4484 0.138315 0
63.2261 0.0688182 0
63.7521 -0.0018003 0
63.9709 0.112654 0
63.7421 0.0828812 0
64.5715 0.061663 0
64.7101 -0.0436034 0
64.9315 -0.0250966 0
64.4961 0.059888 0
65.1052 -0.0548686 0
65.5891 -0.155135 0
65.2778 -0.00591596 0
66.0154 -0.205869 0
66.1072 -0.132988 0
66.2508 -0.24068 0
65.938 -0.0791684 0
66.3971 -0.292486 0
66.6092 -0.421765 0
66.7892 -0.192752 0
66.6341 -0.322973 0
66.8279 -0.42843 0
66.9078 -0.466907 0
67.1463 -0.334838 0
67.1291 -0.384751 0
67.1346 -0.502065 0
67.2322 -0.587983 0
67.3765 -0.324949 0
67.3044 -0.551373 0
67.359 -0.591575 0
67.6323 -0.261933 0
67.4725 -0.360901 0
67.4772 -0.578153 0
67.5316 -0.529068 0
67.7023 -0.312115 0
67.7315 -0.228446 0
67.7186 -0.386976 0
67.5716 -0.13481 0
67.7141 -0.426732 0
67.721 -0.408938 0
67.7497 -0.380152 0
67.7829 -0.262949 0
67.7635 -0.357946 0
67.7626 -0.311362 0
67.9512 -0.0745616 0
67.845 -0.280637 0
67.853 -0.233982 0
67.873 -0.212523 0
67.9201 -0.078936 0
67.9262 -0.145991 0
67.8805 -0.192343 0
67.9358 -0.119309 0
67.8723 -0.162839 0
67.9439 -0.0785188 0
67.9628 -0.0610322 0
68.0264 -0.00922205 0
67.9485 -0.0232864 0
67.9373 -0.0663517 0
68.0646 0.0105094 0
67.9818 -0.0174218 0
68.0086 0.00740317 0
67.9963 0.0238444 0
68.0323 0.00598371 0
68.0238 0.0388909 0
68.1526 0.0855428 0
68.2344 0.0242162 0
68.1455 0.0727484 0
68.2275 0.103374 0
68.2459 0.120782 0
68.178 0.047102 0
68.2873 0.119786 0
68.393 0.149892 0
68.5481 0.0293961 0
68.6429 0.0441277 0
68.5863 0.137996 0
68.6046 0.190731 0
68.5339 0.134813 0
68.7842 0.131169 0
68.9454 0.184418 0
69.4636 0.0229758 0
69.0614 0.0861288 0
69.3391 0.236702 0
69.4266 0.222301 0
69.1089 0.117833 0
69.5929 0.227817 0
69.9374 0.173116 0
70.1881 0.0211855 0
69.7628 0.214005 0
70.3787 0.22567 0
70.3964 0.207819 0
69.8745 0.107113 0
70.552 0.152117 0
70.9947 0.214073 0
70.7428 0.0626159 0
71.0076 0.165686 0
71.1452 0.0438419 0
71.2044 0.189791 0
71.0194 0.145437 0
71.2561 0.197393 0
71.4029 0.173459 0
71.372 0.0609205 0
71.3601 0.190198 0
71.4507 0.205431 0
71.3288 0.0502265 0
71.3393 0.170056 0
71.3285 0.159472 0
71.4071 0.22427 0
71.4074 0.029413 0
71.2976 0.210505 0
71.097 0.260221 0
70.9175 0.20081 0
70.904 0.0851284 0
70.5854 0.204984 0
71.2084 0.0551322 0
71.1868 0.179845 0
70.7953 0.256391 0
70.4109 0.356434 0
70.3005 0.319017 0
71.0215 0.0425725 0
69.8822 0.325471 0
69.7831 0.348032 0
69.406 0.270116 0
69.3811 0.175151 0
68.9456 0.255916 0
69.4821 0.314729 0
70.1133 0.102651 0
69.0718 0.420131 0
68.9462 0.33899 0
68.7717 0.269722 0
68.823 0.049464 0
68.6132 0.350342 0
68.3132 0.326197 0
68.2662 0.109644 0
68.4906 0.196263 0
68.1774 0.225553 0
68.1162 0.304848 0
68.7095 0.130805 0
68.0224 0.265855 0
67.9728 0.217894 0
67.7198 0.0765503 0
67.8387 0.0963743 0
67.8393 0.0903797 0
67.7541 0.0725557 0
67.5658 0.108849 0
67.6185 0.141689 0
67.8258 0.0658089 0
67.6806 0.106578 0
67.8657 -0.0298611 0
67.9017 -0.0447932 0
67.8321 -0.0920918 0
67.5166 0.0221733 0
68.0814 -0.209308 0
68.1195 -0.24435 0
67.808 -0.0484622 0
68.1333 -0.150633 0
67.7839 -0.049758 0
68.1795 -0.236671 0
67.6568 0.0321323 0
68.4092 -0.350537 0
68.4656 -0.382135 0
67.6874 -0.000408349 0
68.5766 -0.342249 0
68.8582 -0.421891 0
68.7329 -0.387393 0
68.6258 -0.100339 0
69.0977 -0.44092 0
69.1593 -0.363286 0
68.5092 -0.330914 0
69.1961 -0.320194 0
68.5959 -0.21246 0
69.3511 -0.291014 0
69.2161 -0.0710455 0
69.4053 -0.213972 0
69.4994 -0.158947 0
68.7916 -0.0320661 0
69.5598 -0.164243 0
69.6528 0.126385 0
69.7123 0.216415 0
70.1427 -0.124901 0
69.76 0.35036 0
69.8401 0.497179 0
69.5816 -0.283806 0
70.2901 0.312235 0
70.5697 -0.0670541 0
69.9299 0.744739 0
70.8665 -0.0643761 0
69.9913 0.941845 0
70.0483 1.05315 0
70.4379 0.00906224 0
70.3978 0.941862 0
70.2485 1.65813 0
70.3829 1.76428 0
71.2935 0.127484 0
70.4083 1.70083 0
70.5515 2.22593 0
70.5072 0.82741 0
71.3397 1.75781 0
71.7201 0.270196 0
70.6461 1.91394 0
72.1332 0.147732 0
70.8409 2.55945 0
70.8971 2.62445 0
71.8839 0.0882781 0
71.3695 2.46753 0
71.2102 2.93049 0
71.4826 3.10593 0
72.7242 0.536531 0
71.7486 3.32694 0
71.8489 3.2335 0
72.8101 1.13766 0
72.0575 3.48298 0
72.6987 2.66071 0
72.3176 1.30896 0
72.2906 0.760554 0
72.4863 3.62373 0
72.6628 3.23792 0
73.048 3.55396 0
72.8062 0.0531138 0
73.3268 3.02169 0
73.6345 3.35307 0
72.8867 0.38293 0
73.0869 2.92645 0
74.0571 3.05061 0
73.6685 2.44862 0
73.0233 1.24289 0
74.2103 2.79966 0
74.5055 2.54822 0
73.0775 2.42261 0
74.0855 1.85938 0
73.3044 1.00501 0
74.2841 2.25642 0
73.0379 0.497081 0
74.9471 1.8004 0
74.701 1.42132 0
74.9837 0.728391 0
71.7996 -0.0989273 0
74.7385 1.49277 0
73.5074 1.52477 0
74.3402 2.05577 0
71.9455 -0.162493 0
73.9786 2.42408 0
73.4405 2.65737 0
71.3533 -0.0549332 0
73.4706 2.87111 0
75.0732 1.40989 0
72.9871 0.327976 0
75.1627 1.0943 0
74.693 0.574222 0
74.265 0.884267 0
72.8242 0.183958 0
75.0622 0.166481 0
72.8076 2.80412 0
75.1006 -0.933149 0
72.9721 0.694683 0
75.0008 -0.922764 0
74.5574 -1.75089 0
70.9416 0.181585 0
74.4779 -1.87799 0
74.281 0.732374 0
74.8113 -1.27137 0
73.4554 -0.511175 0
72.3048 0.243302 0
74.2244 -1.5469 0
73.9739 -2.12852 0
72.5038 3.17563 0
73.9548 -2.02605 0
72.5019 0.172849 0
73.4619 -2.61603 0
73.2241 -3.17791 0
72.0232 0.128337 0
72.6937 -3.63515 0
72.6248 -1.7976 0
71.0643 0.0722994 0
72.1996 -3.92315 0
71.6934 -1.23911 0
72.2971 -0.191017 0
72.3713 -2.87903 0
71.7486 -3.47273 0
72.5408 0.445721 0
70.3121 -0.0530464 0
71.9638 0.0603619 0
71.315 0.0503134 0
71.6065 -4.04353 0
72.4203 3.04281 0
70.179 -0.0129477 0
71.8536 2.34231 0
71.0974 -4.18756 0
71.1396 -0.0567526 0
70.5732 -2.60323 0
72.0213 3.81354 0
69.7701 0.125564 0
72.0231 3.81342 0
70.7182 3.29968 0
69.6152 0.00682581 0
71.2233 3.45865 0
70.8246 -2.58621 0
70.8127 -0.0318562 0
70.5622 -4.41282 0
70.6317 -4.27495 0
71.359 3.76564 0
70.243 3.84009 0
69.1451 -0.0337589 0
70.8496 3.86628 0
69.7478 1.74387 0
69.6451 0.221177 0
69.972 -4.49029 0
69.6407 -0.0333914 0
70.2096 -4.37097 0
69.4408 4.26861 0
69.55 -4.07652 0
69.1065 -0.0528257 0
69.7097 -0.731598 0
68.8128 -4.0154 0
70.4597 -1.11552 0
68.6393 -3.7775 0
68.5992 -0.0667712 0
67.9462 -3.64102 0
69.3129 0.46434 0
68.7706 0.0278311 0
69.1935 3.33125 0
68.2018 0.0677376 0
68.9602 4.2374 0
68.8828 3.94221 0
67.9413 0.14735 0
68.3476 3.21571 0
67.8024 0.150406 0
68.9219 -3.10224 0
68.6442 -0.141056 0
69.6075 2.50704 0
67.3028 -1.48999 0
68.1441 2.95526 0
67.8552 -3.6707 0
68.6389 -0.0897071 0
66.4868 -2.95568 0
67.185 0.586567 0
67.0564 -2.79018 0
68.959 0.622529 0
67.752 0.199259 0
69.492 -2.05934 0
67.8424 -1.06073 0
66.5274 -2.65907 0
67.6243 2.48773 0
67.711 -1.53214 0
67.8098 -1.1821 0
66.7298 -1.99847 0
68.4749 0.572799 0
66.3594 0.117544 0
67.1765 1.86567 0
67.4091 1.64053 0
66.6613 -2.45886 0
67.4642 -0.89931 0
67.1185 3.27652 0
68.2178 -0.454333 0
67.7923 -0.376017 0
66.2755 -2.11799 0
67.0195 2.79577 0
67.22 -1.66758 0
66.7502 1.77136 0
66.5926 1.78013 0
67.2257 -1.13416 0
65.8758 1.49859 0
65.684 -1.95977 0
67.3826 0.691349 0
65.3772 -1.99291 0
67.1215 -0.239193 0
67.4554 0.583412 0
64.8555 -1.32141 0
65.9444 2.28977 0
67.1596 -1.67038 0
66.8762 0.720874 0
65.1768 -1.05247 0
67.23 0.940088 0
64.6948 -1.0713 0
64.9589 1.49612 0
67.164 -0.91686 0
65.2092 1.30564 0
65.4786 0.812153 0
67.6494 -0.230437 0
64.8135 1.13859 0
65.5906 -0.452925 0
67.1672 1.3682 0
65.0324 -0.553591 0
64.2085 -0.480397 0
67.4343 0.500879 0
64.2874 -0.424993 0
67.2226 -0.445863 0
67.3913 -0.29222 0
66.4889 0.317521 0
64.6663 0.837547 0
67.2823 -0.220309 0
64.2743 0.50121 0
67.3248 0.368591 0
67.5854 0.46113 0
64.199 -0.228054 0
64.5573 -0.160212 0
67.3862 0.227718 0
66.2846 -0.155791 0
64.7381 0.0393017 0
67.4843 0.28699 0
67.8691 -2.61009 0
67.5893 -0.231338 0
67.7048 0.672597 0
68.4806 3.40645 0
69.194 -4.13564 0
70.2048 -0.0472331 0
69.2315 0.0151401 0
70.7416 4.23184 0
67.36 -0.976175 0
65.5257 2.18387 0
64.9795 -1.2116 0
67.7185 0.184875 0
67.568 0.563254 0
68.1626 -0.996333 0
67.6728 -1.15729 0
67.3406 -0.179711 0
67.334 -0.033709 0
64.5974 0.710065 0
68.212 0.26302 0
68.3146 0.47282 0
68.3871 -0.856351 0
69.0716 -0.0199489 0
72.0377 0.234206 0
72.9826 -3.37075 0
73.6603 2.58464 0
71.769 -0.0699313 0
68.0028 -0.666618 0
69.444 4.06152 0
68.8812 -3.68603 0
69.2161 -0.629232 0
67.3446 0.274397 0
65.3339 -0.150324 0
67.0849 2.73116 0
68.2686 0.0497113 0
68.1024 0.128737 0
65.71 -2.23061 0
75.1771 0.623138 0
72.8156 0.368123 0
72.7199 -0.385851 0
74.8765 -1.33907 0
67.6684 1.09131 0
68.0383 -0.643744 0
67.9714 1.43233 0
68.0408 0.639277 0
70.7002 -0.0759138 0
70.9565 0.868296 0
69.9646 -0.120226 0
71.4264 0.0210557 0
70.5256 1.53898 0
72.2217 3.34102 0
71.9325 -4.00239 0
70.6389 -0.105012 0
72.263 -0.28596 0
73.2671 0.377451 0
72.3974 0.259717 0
72.5314 0.0562346 0
72.9883 0.680508 0
73.2152 3.4291 0
72.6267 -3.48089 0
73.0584 -0.0607531 0
72.254 0.00789531 0
70.9726 2.79382 0
71.2209 -2.51319 0
72.6481 -0.480537 0
68.5884 -0.886544 0
67.7364 -0.415591 0
68.0355 0.393965 0
68.2783 0.617306 0
67.9293 -0.234282 0
67.8092 1.1776 0
67.7755 -1.19587 0
67.8931 0.666919 0
73.052 -0.791621 0
73.5704 -1.77975 0
73.2385 1.18948 0
72.9583 0.261148 0
66.4969 -0.200395 0
67.3019 0.570934 0
67.3527 0.869206 0
67.1651 1.10036 0
67.4636 -0.604759 0
67.5074 -1.7465 0
70.1128 1.29125 0
71.0619 -0.0415384 0
72.1371 0.00780457 0
70.1103 -0.766274 0
69.9413 0.0335696 0
70.0434 -0.404424 0
70.208 0.0627184 0
69.2629 -0.0237015 0
68.288 1.06482 0
67.7537 3.75643 0
67.8217 -3.16123 0
68.7552 -0.821475 0
68.8228 -0.852007 0
68.0049 -0.229663 0
68.3407 1.47791 0
68.5297 0.508667 0
72.7752 -0.63916 0
73.0003 -0.473934 0
72.6249 0.30995 0
71.5893 2.17327 0
69.7083 -2.1725 0
70.298 -1.97059 0
69.9133 1.4002 0
70.2448 4.2909 0
69.3331 -1.09575 0
69.6888 -0.248594 0
69.6084 0.465889 0
68.6522 0.638781 0
69.6243 0.0632719 0
69.7889 -0.145231 0
70.7873 0.0667435 0
69.4123 0.244721 0
67.5159 -0.973131 0
67.5598 -0.138429 0
72.1197 -0.24297 0
71.4592 -1.32336 0
71.6533 0.670378 0
71.5874 0.052759 0
68.1112 -0.80957 0
68.122 -0.277954 0
68.7164 0.678754 0
67.7451 -0.151543 0
67.8057 -1.27372 0
67.801 0.456692 0
68.0016 0.726679 0
67.7752 1.16871 0
64.9389 0.425807 0
67.3314 -0.317111 0
72.76 0.152561 0
74.9173 -0.526133 0
75.1261 0.00469552 0
72.4921 -0.321669 0
67.3436 -0.354671 0
65.6119 -1.03612 0
68.0839 -0.061987 0
68.5679 -0.382766 0
67.5745 0.0330893 0
68.0243 -0.206325 0
68.6712 0.338199 0
68.4833 0.109198 0
67.9281 -0.0365523 0
67.638 0.00527798 0
71.0137 0.0157571 0
70.3461 -0.00961686 0
70.4005 -0.0711268 0
70.2673 -0.0593685 0
67.3363 -0.760349 0
67.2408 -1.41665 0
66.9119 -0.157965 0
64.9775 0.133924 0
67.1879 0.744275 0
67.4739 0.711622 0
67.3427 -0.487394 0
67.4804 0.733849 0
74.3514 2.88338 0
73.3451 1.39281 0
73.7766 -1.67226 0
73.6614 -3.26309 0
68.1814 -0.0846448 0
67.9172 0.076234 0
67.9329 0.590577 0
67.7717 0.0484791 0
69.3603 0.148294 0
69.1754 0.281066 0
69.2486 -0.218638 0
68.3921 -0.0742568 0
68.0557 0.144991 0
68.0066 0.222079 0
68.1771 -0.334108 0
67.8785 -0.0815754 0
67.9021 -0.393631 0
69.0905 -0.656332 0
68.617 0.754805 0
68.0795 0.63554 0
69.2537 0.55888 0
67.9219 -0.370338 0
68.3725 -0.382248 0
69.0944 -0.749928 0
72.7208 1.82599 0
71.4291 2.79787 0
71.4033 -2.87164 0
72.7446 -2.09528 0
67.7049 1.49962 0
67.8695 1.21255 0
67.5893 -1.75221 0
67.6428 -0.925373 0
68.5675 0.319171 0
69.2367 0.0892177 0
69.0186 -0.116622 0
68.8849 -0.413144 0
72.0515 0.639809 0
73.6374 2.02627 0
73.5456 -2.96431 0
72.4771 -0.0421698 0
66.0476 -1.24074 0
68.1409 -0.923719 0
71.782 -0.222648 0
71.8583 0.0886159 0
71.0591 0.00658385 0
72.6471 -0.346289 0
65.7036 1.95028 0
67.2084 0.360628 0
67.9587 0.00944721 0
68.2089 0.166833 0
67.879 -0.0608214 0
67.7572 0.0143516 0
72.8985 0.274296 0
73.0001 0.839111 0
73.2002 -1.11681 0
72.6843 -0.130434 0
70.7532 0.0491431 0
69.7438 -0.00438221 0
70.452 -0.0308896 0
71.1235 -0.36732 0
71.4471 0.836583 0
70.3695 1.35323 0
70.5381 -1.42755 0
72.0773 -1.5246 0
70.7852 -0.907575 0
70.9689 -0.0569615 0
70.5915 0.288425 0
72.3458 1.74711 0
70.2015 0.275134 0
70.4124 0.0737231 0
69.5719 -0.104855 0
70.6267 -0.306229 0
67.7189 -0.104428 0
67.5749 -0.00812706 0
67.5158 0.0557285 0
67.8873 0.198291 0
68.6841 0.108894 0
68.759 0.329205 0
69.0694 -0.186221 0
69.3396 -0.0329406 0
70.1744 0.365371 0
69.2538 0.332451 0
69.3856 -0.60668 0
68.8083 -0.752403 0
72.9675 1.04829 0
73.0193 0.548755 0
73.1678 -0.655383 0
72.9688 -1.61464 0
69.5785 0.866143 0
69.6089 0.301021 0
68.3392 -0.49437 0
68.0399 -0.247223 0
67.9129 0.248824 0
68.6811 0.160004 0
66.9953 0.00534101 0
67.7332 1.09994 0
74.5653 2.02225 0
73.5149 1.32753 0
73.7749 -0.745499 0
74.7112 -1.98211 0
67.4782 1.49753 0
67.6174 -0.333033 0
67.6668 -0.201546 0
67.533 -1.4599 0
67.8424 -0.000564001 0
67.8108 0.0652319 0
67.7564 -0.226391 0
67.7156 0.00437478 0
65.9405 -0.176896 0
64.1882 -0.0789601 0
71.8173 0.204202 0
73.4353 -0.953501 0
72.8997 0.584439 0
73.6711 -0.0713596 0
68.0032 -0.0955334 0
67.5259 -0.673475 0
67.6993 0.166932 0
67.2487 0.103131 0
70.0071 3.10921 0
68.6629 1.058 0
69.8727 -1.28694 0
69.2182 -4.3584 0
67.3843 -1.2062 0
67.1945 -1.23774 0
70.2574 -0.0507181 0
69.7564 0.337422 0
69.8249 0.00115474 0
70.8905 0.112644 0
68.8685 -0.0581676 0
68.0944 -0.0624128 0
68.0201 0.0493052 0
68.8939 0.30633 0
72.406 -3.17618 0
73.4854 -2.23854 0
72.7135 2.35265 0
72.6773 3.45476 0
67.3062 -0.26209 0