# vtk DataFile Version 3.0
Unstructured Grid for Triangles
ASCII
DATASET UNSTRUCTURED_GRID
POINTS 29612 DOUBLE
-0.000272397 1.23686e-05 0
-0.000295789 9.5838e-06 0
-0.000277865 -3.1235e-06 0
0.002024 0.0005 0
0.00203975 0.00049875 0
0.00205 0.0005 0
0.00203975 -0.00049875 0
0.002024 -0.0005 0
0.00205 -0.0005 0
0.0020295 0.0004975 0
0.0020295 -0.0004975 0
0.00201925 0.00049625 0
0.00201925 -0.00049625 0
-0.000529747 -0.000479887 0
-0.00055 -0.0005 0
-0.000524 -0.0005 0
-0.000505983 -0.000484325 0
-0.000498 -0.0005 0
-0.000472 -0.0005 0
-0.000483864 -0.000487761 0
-0.000446 -0.0005 0
-0.000459 -0.000484239 0
-0.000429453 -0.000424878 0
-0.000447486 -0.000420717 0
-0.000441829 -0.000436609 0
-0.000512578 -0.000462101 0
-0.000493078 -0.000453594 0
-0.00050706 -0.000439006 0
-0.000419243 -0.000477545 0
-0.000440307 -0.000471837 0
-0.00043691 -0.000486724 0
-0.000516129 -0.000420948 0
-0.000495355 -0.000415432 0
-0.000511646 -0.00040128 0
-0.000394697 -0.000481197 0
-0.000406302 -0.000455143 0
-0.000537257 -0.000388197 0
-0.000531099 -0.000407297 0
-0.000523982 -0.000388328 0
-0.000370063 -0.000472956 0
-0.000368 -0.0005 0
-0.00035308 -0.000485302 0
-0.0005072 -0.00037867 0
-0.000485506 -0.000383975 0
-0.000490949 -0.000359622 0
-0.000337127 -0.000484331 0
-0.000316 -0.0005 0
-0.000326495 -0.00047415 0
-0.00055 -0.00035 0
-0.000531201 -0.000370361 0
-0.000528367 -0.000346817 0
-0.000363898 -0.000448809 0
-0.000383315 -0.000460336 0
-3.26269e-05 -0.000415503 0
-5.99662e-05 -0.000409556 0
-5.46944e-05 -0.000429488 0
-0.000529747 0.000479887 0
-0.00055 0.0005 0
-0.00055 0.000475 0
-0.00055 0.00045 0
-0.000534834 0.000429171 0
-0.000526943 0.000442611 0
-0.000534026 0.000460176 0
-0.000531099 0.000407297 0
-0.000511672 0.000401178 0
-0.000516129 0.000420948 0
-0.000524 0.0005 0
-0.000505983 0.000484325 0
-0.000531201 0.000370361 0
-0.0005072 0.00037867 0
-0.000523982 0.000388328 0
-0.00048341 0.000469132 0
-0.000483679 0.000487539 0
-0.000528367 0.000346817 0
-0.00055 0.000325 0
-0.000525657 0.000328474 0
-0.000498 0.0005 0
-0.000530382 0.0003125 0
-0.000419243 0.000477545 0
-0.000440015 0.00047335 0
-0.000425917 0.000463678 0
-0.000435138 0.000262661 0
-0.000414982 0.000274462 0
-0.000435654 0.000285217 0
-0.000459 0.000484239 0
-0.000436852 0.000487027 0
-0.000446 0.0005 0
-0.000533308 0.000292503 0
-0.00055 0.000275 0
-0.000523377 0.000276953 0
-0.000425282 0.000446352 0
-0.000409368 0.000435728 0
-0.000406302 0.000455143 0
0.002009 0.000495 0
0.001998 0.0005 0
0.00199875 0.00049375 0
0.0019885 0.0004925 0
0.001972 0.0005 0
0.00197825 0.00049125 0
0.001968 0.00049 0
0.00195775 0.00048875 0
0.001946 0.0005 0
0.0019475 0.0004875 0
0.00193725 0.00048625 0
0.00192 0.0005 0
0.001927 0.000485 0
0.00191675 0.00048375 0
0.0019065 0.0004825 0
0.001894 0.0005 0
0.00189625 0.00048125 0
0.001886 0.00048 0
0.001868 0.0005 0
0.00187575 0.00047875 0
0.0018655 0.0004775 0
0.00185515 0.00048575 0
0.001842 0.0005 0
0.001845 0.000475 0
0.00185525 0.00047625 0
0.00182564 0.0004829 0
0.001816 0.0005 0
0.0018245 0.0004725 0
0.00183475 0.00047375 0
0.00181425 0.00047125 0
0.00180295 0.000482657 0
0.00179 0.0005 0
0.00179375 0.00046875 0
0.001804 0.00047 0
0.00178168 0.000480619 0
0.001764 0.0005 0
0.00177325 0.00046625 0
0.0017835 0.0004675 0
0.00176428 0.000476631 0
0.001763 0.000465 0
0.001738 0.0005 0
0.001751 0.000484164 0
0.00175275 0.00046375 0
0.00174025 0.000475632 0
0.001712 0.0005 0
0.00172615 0.000478449 0
0.001722 0.00046 0
0.00173225 0.00046125 0
0.0017015 0.0004575 0
0.00171243 0.00047381 0
0.00169554 0.000479999 0
0.001686 0.0005 0
0.00167507 0.000479751 0
0.00168498 0.000464861 0
0.00166 0.0005 0
0.0016558 0.000471459 0
0.00167135 0.000462887 0
0.001681 0.000455 0
0.0016605 0.0004525 0
0.00167075 0.00045375 0
0.00164059 0.000461599 0
0.0016394 0.000479551 0
0.00162881 0.00046615 0
0.00162975 0.00044875 0
0.00165025 0.00045125 0
0.00164 0.00045 0
0.00161754 0.000458641 0
0.00161722 0.000478101 0
0.00159956 0.000458294 0
0.00160925 0.00044625 0
0.0016195 0.0004475 0
0.00157667 0.000460322 0
0.00158875 0.00044375 0
0.00159194 0.000480155 0
0.001599 0.000445 0
0.0015785 0.0004425 0
0.00155808 0.000456757 0
0.00155647 0.000476701 0
0.00154059 0.000466642 0
0.00153756 0.000450083 0
0.00154839 0.000450446 0
0.00156825 0.00044125 0
0.00151954 0.000480508 0
0.00154052 0.00048477 0
0.00153 0.0005 0
0.00154775 0.00043875 0
0.00152142 0.000456625 0
0.00152821 0.000445753 0
0.0015375 0.0004375 0
0.001504 0.0005 0
0.00149644 0.000485168 0
0.00151787 0.000443178 0
0.00152725 0.00043625 0
0.00150675 0.00043375 0
0.001517 0.000435 0
0.00148119 0.000450887 0
0.00148072 0.000475756 0
0.00146584 0.000463516 0
0.00150008 0.00046396 0
0.00149351 0.00044543 0
0.0015061 0.000446252 0
0.001476 0.00043 0
0.00148625 0.00043125 0
0.00146492 0.000482975 0
0.00144888 0.000473562 0
0.00146676 0.000444259 0
0.00145255 0.000453656 0
0.00145652 0.000438669 0
0.00141401 0.000479821 0
0.001426 0.0005 0
0.0014 0.0005 0
0.00144374 0.000438862 0
0.0014555 0.0004275 0
0.001435 0.000425 0
0.00144525 0.00042625 0
0.00142746 0.000438121 0
0.00141288 0.000443191 0
0.00141707 0.000432778 0
0.0013921 0.000438992 0
0.00140355 0.00045932 0
0.00138302 0.00045922 0
0.00142912 0.000458869 0
0.00140592 0.000430037 0
0.0014145 0.0004225 0
0.00136458 0.00045869 0
0.00137106 0.00044063 0
0.001394 0.00042 0
0.00138259 0.000428915 0
0.00137484 0.000477094 0
0.00139166 0.000478902 0
0.0013586 0.000478984 0
0.00133449 0.000478649 0
0.00134717 0.000461848 0
0.00137256 0.000425134 0
0.00135323 0.000424541 0
0.00136325 0.00041625 0
0.00136122 0.00042876 0
0.00131206 0.000447284 0
0.00133168 0.000456738 0
0.00131773 0.000465243 0
0.00134756 0.000440343 0
0.00132747 0.000436463 0
0.00133483 0.000426786 0
0.00131081 0.00041867 0
0.00132382 0.000422815 0
0.00131507 0.00043122 0
0.00131059 0.000480123 0
0.0013325 0.0004125 0
0.0012915 0.0004075 0
0.0012982 0.000418199 0
0.00128915 0.000426216 0
0.00126366 0.000447574 0
0.00127331 0.000430908 0
0.00128781 0.000444872 0
0.00125336 0.000428376 0
0.00130218 0.000431077 0
0.00127894 0.000416344 0
0.00124774 0.000469608 0
0.00127668 0.000464148 0
0.00126591 0.00048331 0
0.00126722 0.000418415 0
0.00125768 0.000411931 0
0.00124326 0.000413546 0
0.0012505 0.0004025 0
0.00122408 0.000450118 0
0.00120276 0.000447432 0
0.0012139 0.000432235 0
0.00124336 0.000444132 0
0.00123056 0.000427595 0
0.00122977 0.000409049 0
0.0012185 0.000469217 0
0.00122676 0.000485947 0
0.00120525 0.000486094 0
0.00121479 0.000413153 0
0.00119547 0.000424221 0
0.00120249 0.000407448 0
0.00119925 0.00039625 0
0.00119346 0.000406114 0
0.00117479 0.000447279 0
0.00114726 0.000445259 0
0.0011571 0.000427814 0
0.00119443 0.000466611 0
0.00117447 0.000421596 0
0.00118421 0.00040752 0
0.00117409 0.000404437 0
0.00116775 0.000470073 0
0.001179 0.0004855 0
0.00115473 0.000484802 0
0.0011685 0.0003925 0
0.00117875 0.00039375 0
0.00115454 0.000400551 0
0.001148 0.00039 0
0.00115825 0.00039125 0
0.00111703 0.000423398 0
0.00113786 0.000426731 0
0.00112589 0.000443871 0
0.00113234 0.000406671 0
0.00114754 0.000413371 0
0.001106 0.000442326 0
0.00109703 0.000424261 0
0.0011275 0.0003875 0
0.00113775 0.00038875 0
0.00110211 0.000480875 0
0.00108244 0.000471951 0
0.00109312 0.000458413 0
0.00111755 0.000399116 0
0.0010944 0.000392972 0
0.00110415 0.000405876 0
0.00108839 0.000407536 0
0.00106472 0.000476905 0
0.00107274 0.000457868 0
0.00108011 0.000392415 0
0.00106885 0.000404365 0
0.00106625 0.000388708 0
0.00105286 0.000419254 0
0.00105055 0.000395469 0
0.00104215 0.000439764 0
0.00106346 0.000440629 0
0.00100945 0.000451249 0
0.00102825 0.00045614 0
0.00101189 0.000468452 0
0.00107625 0.00038125 0
0.00105575 0.00037875 0
0.001066 0.00038 0
0.00103352 0.000476905 0
0.00101803 0.00048465 0
0.00103685 0.000389398 0
0.0010245 0.00038825 0
0.00103525 0.00037625 0
0.00101092 0.000399779 0
0.00101267 0.000382619 0
0.00101382 0.00042025 0
0.00103187 0.000405286 0
0.00103359 0.000424605 0
0.000987383 0.00045447 0
0.000999411 0.000435161 0
0.0009744 0.000433145 0
0.0010045 0.0003725 0
0.00101475 0.00037375 0
0.000970845 0.000465215 0
0.000952614 0.000467664 0
0.000961768 0.000449944 0
0.00099729 0.000387704 0
0.000978901 0.00039598 0
0.000985823 0.000381492 0
0.000962289 0.000393709 0
0.000974259 0.000381279 0
0.00097375 0.00036875 0
0.000963045 0.000376631 0
0.000958 0.0005 0
0.000932 0.0005 0
0.000947542 0.00048457 0
0.000949675 0.000385245 0
0.000936214 0.000389472 0
0.000940006 0.000374906 0
0.000966411 0.000412573 0
0.000944241 0.000407079 0
0.000903569 0.000424993 0
0.000921701 0.000402409 0
0.000927439 0.000427744 0
0.000889795 0.000409067 0
0.000903071 0.00040248 0
0.000925447 0.000377721 0
0.00093275 0.00036375 0
0.000907708 0.000387127 0
0.000911303 0.000370839 0
0.000911933 0.000455145 0
0.000930678 0.000473279 0
0.000911886 0.000482603 0
0.000887724 0.000388076 0
0.000899595 0.000375116 0
0.000902 0.00036 0
0.000889241 0.00036954 0
0.000836977 0.000459472 0
0.000836223 0.000483578 0
0.000820467 0.000474142 0
0.000871227 0.000403557 0
0.000861 0.000355 0
0.000868368 0.000365714 0
0.00085484 0.00036588 0
0.000847735 0.000402845 0
0.000823121 0.000421599 0
0.000826582 0.000398147 0
0.000846943 0.00042454 0
0.000838832 0.000378613 0
0.000835569 0.000363808 0
0.000844098 0.00036291 0
0.00085075 0.00035375 0
0.000851465 0.000477164 0
0.00083025 0.00035125 0
0.000822824 0.000368659 0
0.00081446 0.000357362 0
0.000805884 0.000371794 0
0.000753471 0.000477524 0
0.000738313 0.000473927 0
0.000739102 0.000461526 0
0.00079826 0.000358588 0
0.000788607 0.000376287 0
0.000781733 0.000357987 0
0.000816783 0.000384471 0
0.000807975 0.000404095 0
0.000752138 0.000404775 0
0.000767682 0.000417043 0
0.000749617 0.000421803 0
0.000752903 0.000384008 0
0.000738293 0.000393136 0
0.000772614 0.000394048 0
0.00076863 0.000371878 0
0.000765995 0.000354121 0
0.000779 0.000345 0
0.00071811 0.000453059 0
0.000738069 0.000437967 0
0.000752085 0.000365972 0
0.000728123 0.000374583 0
0.000741845 0.000354664 0
[...]
CELL_DATA 58684
VECTORS velocity DOUBLE
65.8311 0.152743 0
72.0342 -3.72061e-05 0
73.4569 -0.000343302 0
72.1564 -0.0116906 0
73.4286 -0.00265756 0
72.2216 -0.0375925 0
73.403 -0.0141018 0
67.8192 -0.00115725 0
67.8377 -0.0386796 0
67.9944 -0.00214033 0
68.1329 -0.00345268 0
68.1981 -0.423233 0
67.8971 -0.170598 0
68.2892 -0.125765 0
67.8697 -0.286352 0
68.4781 -0.151211 0
67.8306 -0.1733 0
68.7433 -0.121665 0
67.9713 -0.476071 0
69.1271 -0.0813852 0
67.859 -0.173572 0
68.7313 -0.295812 0
72.6746 -1.16264 0
67.7936 0.017014 0
67.7944 0.0771324 0
67.7932 0.0362637 0
67.8637 0.201874 0
67.8352 0.0331236 0
67.8579 0.260683 0
67.9801 0.0639356 0
67.8631 0.200366 0
67.9144 0.0472315 0
67.7882 0.188696 0
68.3151 0.132218 0
68.1275 0.89324 0
68.167 0.0703063 0
67.8934 0.243291 0
68.3725 0.27853 0
72.2681 -0.0195628 0
72.3478 -0.000202369 0
72.4956 -0.0712746 0
72.5113 -0.0541353 0
72.6041 -0.000509072 0
72.7737 -0.0784504 0
72.7976 -0.105848 0
72.8273 -0.0669408 0
72.9312 -0.00118539 0
73.0752 -0.136094 0
73.0856 -0.107686 0
73.186 -0.00416753 0
73.3824 -0.156116 0
73.3951 -0.163512 0
73.4255 -0.0946994 0
73.5239 -0.00700689 0
73.6638 -0.184862 0
73.6659 -0.1315 0
73.7595 -0.0130093 0
73.9677 -0.231201 0
73.9692 -0.202147 0
73.9969 -0.109971 0
74.1195 -0.00160143 0
74.1946 -0.213303 0
74.2734 -0.12133 0
74.405 -0.00418331 0
74.4797 -0.205244 0
74.4979 -0.169384 0
74.5677 -0.118185 0
74.593 -0.00196992 0
74.6397 -0.129943 0
74.6868 -0.081015 0
74.7177 -0.000192985 0
74.7439 -0.0849532 0
74.7728 -0.0490207 0
74.7925 -0.0569453 0
74.7917 0.00370336 0
74.8092 0.0250405 0
74.7954 0.0143097 0
74.7722 0.010262 0
74.7783 0.117338 0
74.6956 0.1416 0
74.7741 0.117526 0
74.6417 0.0135958 0
74.5788 0.130201 0
74.6698 0.232 0
74.3603 0.192255 0
74.4714 0.262945 0
74.489 0.321054 0
74.3703 0.427316 0
74.1202 0.326651 0
73.9426 0.436958 0
74.2483 0.363647 0
74.0372 0.540979 0
73.8089 0.436963 0
73.8291 0.426355 0
73.7654 0.600024 0
73.3643 0.540382 0
73.5727 0.486804 0
73.475 0.635315 0
73.2397 0.705989 0
73.1506 0.512667 0
72.8716 0.532537 0
73.1512 0.550028 0
72.7852 0.160512 0
72.8588 0.578758 0
72.6079 0.512933 0
72.7338 0.579408 0
72.5632 0.135791 0
72.6005 0.545958 0
72.4498 0.558852 0
72.3106 0.207948 0
72.3241 0.267312 0
72.4453 0.414196 0
72.2197 0.398331 0
72.2134 0.116964 0
72.0792 0.262061 0
72.1341 0.160267 0
72.0517 0.000167514 0
72.0308 0.232719 0
71.9881 0.191246 0
71.9293 0.0870504 0
71.9743 -0.0167881 0
72.035 0.0475837 0
71.922 0.0302535 0
71.9976 -0.0568716 0
71.9356 -0.07016 0
72.0098 -0.0231035 0
71.9418 -0.067673 0
72.0578 -0.0420578 0
71.9858 -0.116871 0
72.0305 -0.213584 0
72.1626 -0.117851 0
72.1179 -0.182482 0
72.1006 -0.0760924 0
72.2179 -0.256976 0
72.1231 -0.0568975 0
72.1418 -0.265445 0
72.3407 -0.258593 0
72.3339 -0.130263 0
72.3415 -0.126986 0
72.2955 -0.203916 0
72.3835 -0.198366 0
72.233 -0.0536538 0
72.4706 -0.164666 0
72.5204 -0.129585 0
72.3933 0.0633296 0
72.3039 0.00282456 0
72.4923 -0.0713681 0
72.4849 -0.0545884 0
72.278 0.0145517 0
72.5117 0.110543 0
72.5386 0.199157 0
72.2212 0.228653 0
72.2064 0.126475 0
72.4835 0.252503 0
72.4511 0.30303 0
72.1786 0.0548317 0
72.4588 0.395223 0
72.31 0.546206 0
72.0003 0.432872 0
72.2166 0.487106 0
71.8591 0.492515 0
72.1909 0.679914 0
71.7289 0.173053 0
72.1702 0.654549 0
71.8816 0.682609 0
71.5637 0.192701 0
71.6222 0.813014 0
71.4635 0.675218 0
71.4166 0.367297 0
71.1515 0.213108 0
71.6351 0.833488 0
71.4894 0.899857 0
71.1765 0.105863 0
71.2423 0.706615 0
71.0497 0.641441 0
71.2392 0.455856 0
71.0084 0.188298 0
70.9662 0.207773 0
70.9845 0.688973 0
70.8681 0.0537246 0
70.7958 0.423081 0
70.7501 0.230769 0
70.7463 0.282316 0
70.8524 -0.00510515 0
70.6274 -0.0022258 0
70.7492 0.0815548 0
70.7233 -0.162869 0
70.7423 -0.306021 0
70.5517 -0.116776 0
70.5589 -0.241327 0
70.799 -0.0481686 0
70.5684 -0.409774 0
70.6091 -0.521225 0
70.6364 -0.509022 0
70.9617 -0.160563 0
70.724 -0.445877 0
70.7909 -0.838683 0
71.0289 -0.66177 0
70.8985 -0.541161 0
70.9142 -1.00094 0
70.8678 -0.955418 0
70.9715 -0.136647 0
71.0575 -1.16551 0
71.1354 -1.06547 0
71.4203 -0.156903 0
71.3253 -1.18849 0
71.1125 -0.753448 0
71.5054 -0.610554 0
71.6136 -0.768449 0
71.4473 -1.00674 0
71.4994 -1.25701 0
71.4757 -0.314665 0
71.8367 -1.0217 0
71.7729 -1.31878 0
72.1402 -1.06776 0
71.611 -0.00783483 0
71.8602 -0.779365 0
72.1335 -1.00911 0
71.5787 -0.199039 0
72.2276 -0.979792 0
72.0434 -0.39019 0
72.2858 -1.01649 0
71.9645 -0.115387 0
72.3932 -0.515846 0
72.3993 -0.639824 0
71.7936 -0.0741401 0
72.5623 -0.529424 0
72.4949 -0.208108 0
72.2173 -0.313407 0
72.1214 -0.133154 0
72.5608 -0.11337 0
72.1071 -0.0730482 0
72.1039 -0.0199215 0
72.3958 -0.145766 0
72.534 5.42501e-05 0
72.4582 0.0697685 0
72.1718 -0.0671027 0
72.33 0.0680264 0
72.2612 0.153072 0
72.2121 -0.044241 0
72.1889 0.0873658 0
72.2185 0.231289 0
72.2857 0.0143816 0
72.313 -0.132925 0
72.3549 -0.175308 0
72.1376 0.126329 0
72.5954 0.00277449 0
72.0756 0.125002 0
72.0266 -0.0650485 0
72.042 0.0133364 0
72.7989 -0.297542 0
72.3195 -0.343245 0
72.1917 -0.592335 0
73.0264 0.00103219 0
72.1697 -0.683656 0
72.5947 -1.05991 0
72.601 -0.540497 0
72.9393 -0.397275 0
72.3541 -1.03015 0
73.0089 -0.507544 0
73.5723 -0.0945736 0
72.7503 -1.05966 0
72.6287 -1.4544 0
72.8914 -1.55936 0
73.6618 -0.360779 0
73.5555 -1.52668 0
73.0521 -1.72092 0
73.9576 -0.205809 0
73.3728 -2.08359 0
73.8174 -2.23081 0
74.1407 -1.26247 0
74.3184 -0.00133027 0
74.3334 -2.294 0
74.621 -0.74069 0
74.9318 -0.794102 0
74.4838 -2.04248 0
74.4537 -1.55614 0
75.2605 -2.06793 0
74.6725 -0.237861 0
75.0942 -2.30516 0
75.4402 -1.3963 0
75.9481 -1.78535 0
74.4438 -0.0624962 0
76.4611 -0.939524 0
76.3855 -0.62629 0
74.4754 0.0526899 0
76.6645 -1.55038 0
77.032 -0.800341 0
75.332 0.229903 0
74.786 0.0200771 0
75.8786 -0.432701 0
77.1554 -0.205424 0
74.5972 0.108601 0
77.026 0.617244 0
77.226 -0.221273 0
77.2426 0.0378145 0
74.449 0.650333 0
76.2142 0.936679 0
77.2336 0.963916 0
74.345 0.112229 0
77.0637 1.41996 0
76.9893 1.48789 0
76.4433 2.78972 0
73.2847 0.20343 0
77.1887 2.43736 0
75.699 1.66819 0
74.2122 0.776382 0
74.2395 1.65683 0
77.0572 2.80247 0
76.4976 3.34622 0
73.6216 0.345278 0
76.3766 3.87 0
73.3908 -0.00634859 0
73.3737 -0.00107014 0
73.3272 -0.0249019 0
73.3231 -0.0261136 0
73.2927 -0.0023423 0
73.2238 -0.036334 0
73.2191 -0.0491849 0
73.209 -0.0389054 0
73.1676 -0.00505977 0
73.1069 -0.068805 0
73.1065 -0.0538651 0
73.0754 -0.00734005 0
72.9881 -0.0826278 0
72.9911 -0.0880754 0
72.9838 -0.0621252 0
72.9459 -0.0107413 0
72.8858 -0.104192 0
72.8888 -0.082059 0
72.8576 -0.014118 0
72.7675 -0.121744 0
72.7738 -0.111571 0
72.6979 -0.135128 0
72.7703 -0.06442 0
72.6713 -0.0753061 0
72.5946 -0.112524 0
72.6784 -0.0696993 0
72.5948 -0.0889609 0
72.5774 -0.0665988 0
72.5643 -0.0840628 0
72.6101 -0.0542426 0
72.5592 -0.0451591 0
72.556 -0.052876 0
72.5694 -0.0351805 0
72.5737 -0.0120764 0
72.5748 0.00760802 0
72.5853 0.00492653 0
72.5649 -0.0150898 0
72.5938 0.0261602 0
72.6365 0.0412299 0
72.6083 0.0192676 0
72.7064 0.128719 0
72.7051 0.0631918 0
72.7466 0.0919501 0
72.6949 0.0660003 0
72.7694 0.150182 0
72.9044 0.192649 0
72.9661 0.120575 0
72.8822 0.18566 0
73.0256 0.22872 0
73.0401 0.266743 0
73.1795 0.139262 0
73.1277 0.185733 0
73.2346 0.246695 0
73.3448 0.358671 0
73.3531 0.16276 0
73.4066 0.259751 0
73.4788 0.354364 0
73.5058 0.165272 0
73.3947 0.247428 0
73.5869 0.346733 0
73.5867 0.312838 0
73.5943 0.146153 0
73.6655 0.091655 0
73.6825 0.180626 0
73.4466 0.103036 0
73.7587 0.179593 0
73.827 0.0856358 0
73.7713 0.124165 0
73.7198 0.0904672 0
73.8184 0.0133886 0
73.8216 0.000414146 0
73.6291 -0.123079 0
73.755 0.00185992 0
73.7812 -0.153301 0
73.7481 -0.241948 0
73.671 -0.0100123 0
73.6682 -0.192167 0
73.632 -0.410482 0
73.5972 -0.154 0
73.577 -0.369535 0
73.3942 -0.605589 0
73.4062 -0.417265 0
73.089 -0.175218 0
73.2734 -0.576552 0
73.1907 -0.639091 0
72.9146 -0.170226 0
73.0186 -0.779162 0
73.1125 -0.553269 0
72.7673 -0.636188 0
72.9639 -0.412713 0
72.7277 -0.87902 0
72.2858 -0.993095 0
72.2843 -0.227406 0
72.4602 -0.676284 0
72.0779 -1.00578 0
72.1665 -0.678355 0
72.4018 -0.308045 0
71.9557 -0.856073 0
71.8268 -0.80691 0
71.8817 -0.165345 0
71.7189 -0.274341 0
71.633 -0.558833 0
71.5603 -0.769848 0
71.8549 -0.464185 0
71.4279 -0.598517 0
71.3642 -0.536786 0
71.4064 -0.101709 0
71.4404 -0.30685 0
71.2621 -0.368387 0
71.2795 -0.25984 0
71.5404 -0.151556 0
71.2523 -0.201798 0
71.1569 -0.0640975 0
71.3367 0.00260608 0
71.2498 -0.136975 0
71.203 0.0810672 0
71.2327 0.111445 0
71.361 -0.0573499 0
71.2034 0.181084 0
71.3189 0.416535 0
71.3637 0.0586491 0
71.3215 0.361295 0
71.4495 0.141951 0
71.4304 0.416573 0
71.4305 0.169928 0
71.451 0.552135 0
71.5815 0.595419 0
71.5203 0.132767 0
71.5646 0.578653 0
71.7602 0.673155 0
71.6608 0.124574 0
71.5448 0.450383 0
71.7393 0.513698 0
71.8617 0.610347 0
71.6491 0.0827924 0
71.887 0.492878 0
72.0807 0.551019 0
72.0085 0.366927 0
71.7595 0.0953705 0
72.0751 0.251229 0
71.7351 0.151491 0
71.899 0.459604 0
72.1112 0.383961 0
72.2091 0.232232 0
72.186 0.136666 0
71.7417 0.0104208 0
72.2139 -0.0403726 0
72.2135 -0.0957338 0
71.991 -0.229726 0
71.744 -0.0943091 0
71.6342 -0.140087 0
72.0999 -0.230588 0
71.7796 0.0252223 0
72.0225 -0.433042 0
71.9442 -0.424096 0
71.7631 -0.427887 0
71.5032 -0.102663 0
71.7779 -0.538514 0
71.5384 -0.778736 0
71.355 -0.210466 0
71.4877 -0.210866 0
71.4581 -0.568571 0
71.251 -0.769181 0
71.5274 -0.099844 0
71.1618 -0.83343 0
71.0671 -0.708759 0
71.0671 -0.0785698 0
70.8017 -0.63308 0
70.7229 -0.552924 0
70.6625 -0.203291 0
70.9082 -0.0857505 0
70.9336 -0.15094 0
70.7735 -0.420844 0
71.0166 -0.118167 0
70.5293 -0.355767 0
70.451 -0.163393 0
70.6071 0.0876021 0
70.8282 0.00349679 0
70.3896 0.249378 0
70.3959 0.364889 0
70.6489 0.159007 0
70.7515 0.479159 0
70.7495 0.189182 0
70.4316 0.505124 0
70.7951 0.053158 0
70.5648 0.892453 0
70.5571 0.951474 0
70.8398 0.0948361 0
70.7853 1.05561 0
70.9837 1.40516 0
70.8787 1.31116 0
71.3263 0.276901 0
71.4907 1.68811 0
71.5904 1.88719 0
70.9102 0.781799 0
71.6055 1.37991 0
71.212 0.508144 0
72.0951 2.14396 0
71.6804 0.192136 0
72.2207 2.09914 0
72.2491 2.00552 0
71.3928 0.14506 0
72.0984 1.78798 0
73.0238 2.13738 0
73.2702 2.11885 0
72.4434 0.501209 0
73.4358 2.01319 0
73.5481 2.16285 0
72.0992 1.25987 0
73.6562 1.29052 0
72.8152 0.478064 0
73.8895 2.0104 0
72.9587 0.170995 0
74.1867 1.76421 0
74.3552 1.66059 0
72.5807 0.127184 0
74.0489 1.39324 0
74.7279 1.2464 0
74.9224 1.10101 0
73.4843 0.31301 0
74.7414 1.06296 0
75.0232 0.859533 0
74.2614 1.16072 0
74.9003 0.560791 0
73.7624 0.218787 0
74.8083 0.893067 0
73.9777 0.0830904 0
75.1671 0.628792 0
75.234 0.486396 0
73.7027 0.082433 0
75.1048 0.348635 0
75.2907 0.255349 0
75.3525 0.155571 0
74.4811 0.0320526 0
75.387 0.0563456 0
75.4277 0.0360648 0
74.7008 -0.00668359 0
75.4318 0.014297 0
75.3175 -0.0965383 0
74.6369 0.123402 0
74.4077 0.150632 0
75.5096 -0.0346555 0
75.5477 -0.159731 0
75.7123 -0.152909 0
74.3997 -0.00462101 0
75.6408 -0.3257 0
75.8875 -0.330531 0
74.5861 -0.0223796 0
75.536 -0.325705 0
76.0444 -0.524505 0
75.5182 -0.572785 0
74.7506 -0.202524 0
76.086 -0.680959 0
76.1947 -0.852219 0
75.2722 -0.31156 0
75.5037 -1.18954 0
74.5344 -1.19269 0
76.0804 -1.00487 0
74.3456 -0.157723 0
76.3512 -1.38514 0
75.8777 4.36444 0
76.3097 3.79995 0
72.7057 1.18894 0
75.8503 4.34816 0
74.4282 4.15232 0
75.3127 4.84984 0
73.0024 0.449582 0
74.7685 5.04945 0
74.0903 5.08443 0
72.2426 0.618872 0
74.073 5.36518 0
76.3892 -1.68112 0
74.4299 -0.0917794 0
76.3934 -1.88644 0
75.847 -2.28337 0
75.3767 -1.96337 0
74.1542 -0.127761 0
76.0915 -2.59982 0
73.36 5.03422 0
75.8872 -3.40677 0
74.1813 -0.656506 0
75.7702 -3.34661 0
75.2387 -4.00076 0
71.5785 1.53327 0
75.0883 -4.03248 0
75.314 -1.93801 0
75.4541 -3.5606 0
74.1321 -2.71014 0
73.1461 -0.433068 0
74.8736 -3.71914 0
74.5014 -4.09763 0
72.9553 5.30963 0
74.5159 -4.07776 0
73.5751 -0.219364 0
73.9393 -4.43915 0
73.616 -4.87755 0
72.8253 -0.289179 0
73.0099 -5.11532 0
73.135 -3.6341 0
71.6568 -0.382333 0
72.4746 -5.26119 0
72.1465 -2.89951 0
72.9759 -2.08905 0
72.7342 -4.46113 0
72.0368 -4.8182 0
73.3999 2.70111 0
70.992 0.348113 0
72.8863 1.82812 0
71.9972 -0.0351214 0
71.8236 -5.23442 0
72.7973 5.06177 0
70.8615 0.250883 0
72.2855 4.33165 0
71.2845 -5.26311 0
71.7536 -1.01198 0
70.6719 -3.86613 0
72.3217 5.74872 0
70.164 1.39503 0
72.3005 5.68442 0
70.8604 4.91316 0
70.3072 0.278376 0
71.3836 5.11546 0
70.9971 -3.9314 0
71.4855 -0.302168 0
70.7305 -5.41271 0
70.7734 -5.26302 0
71.5774 5.47092 0
70.3318 5.3267 0
69.8665 0.0213757 0
71.0128 5.46027 0
69.6532 3.44488 0
69.9167 1.59556 0
70.1108 -5.42348 0
70.2606 -0.710819 0
70.3439 -5.328 0
69.4692 5.59282 0
69.685 -5.04189 0
69.6941 -0.727087 0
69.6221 -2.30327 0
68.9389 -4.92904 0
70.5803 -2.59738 0
68.7896 -4.74503 0
69.3529 -0.207843 0
68.17 -4.61868 0
69.1178 2.00499 0
69.4097 0.313672 0
69.1998 4.75093 0
69.015 0.0768576 0
69.0102 5.52438 0
68.907 5.22498 0
68.7846 0.134842 0
68.3882 4.588 0
68.6396 0.0985038 0
69.008 -4.26253 0
69.3658 -0.401612 0
69.5659 4.07725 0
68.0025 0.758534 0
68.1929 4.33495 0
68.0939 -4.63465 0
69.4557 -0.174619 0
66.9426 -3.98603 0
67.9639 -0.645643 0
67.4323 -3.96015 0
68.6612 1.80242 0
67.804 0.138081 0
69.434 -3.48503 0
67.8007 -0.168153 0
67.0033 -3.76695 0
67.7455 3.92672 0
67.9366 -3.00416 0
67.8604 -0.381449 0
67.1795 -3.27255 0
68.3101 2.18117 0
66.8835 1.31768 0
67.3959 3.40133 0
67.9648 -0.99374 0
67.1248 -3.57972 0
67.8471 0.468968 0
67.3255 4.53552 0
68.215 -1.80582 0
67.8017 -0.120383 0
66.88 -3.28568 0
67.2319 4.1108 0
67.9539 0.704117 0
67.1196 3.23797 0
66.9682 3.18085 0
67.8846 0.418396 0
66.4465 2.82873 0
66.3091 -2.93575 0
67.8593 -0.446427 0
66.059 -2.94763 0
67.5176 -1.53354 0
67.861 -0.299988 0
65.695 -2.06832 0
66.4213 3.54283 0
67.9278 0.578028 0
67.2725 2.25367 0
66.0441 -1.85353 0
67.8805 -0.462956 0
65.5716 -1.73668 0
65.6179 2.57621 0
67.8969 0.241596 0
65.8793 2.44717 0
66.1 1.97815 0
67.8169 0.0185925 0
65.5641 2.11123 0
66.3859 -1.16503 0
67.9275 -0.692754 0
65.87 -1.04307 0
65.0626 -0.681219 0
67.7031 -0.831017 0
65.2179 -0.584104 0
67.4958 0.577599 0
67.8728 0.019712 0
67.0115 1.6476 0
65.5041 1.6514 0
67.8697 -0.0476048 0
65.0918 1.05375 0
67.7842 -0.350991 0
67.8137 -0.161035 0
65.0948 -0.231959 0
65.4195 -0.117362 0
67.8806 -0.144854 0
66.9194 0.0987461 0
65.6622 0.309008 0
67.8496 -0.118598 0
68.0814 -3.87396 0
67.9719 -0.645925 0
67.8018 0.1469 0
68.5066 4.72709 0
69.3291 -5.05979 0
70.8349 -0.595979 0
69.7484 0.6858 0
70.8185 5.74512 0
67.8459 0.288142 0
66.0808 3.38675 0
65.7942 -2.0721 0
67.7529 -0.296618 0
67.944 -0.779426 0
68.218 -2.60831 0
68.0266 0.772393 0
67.9204 0.253625 0
67.8977 -0.0781524 0
65.4481 1.42384 0
68.9761 0.331494 0
68.4331 1.0944 0
68.7385 -1.03656 0
69.7323 -0.476317 0
72.8495 -0.657086 0
73.3149 -4.94471 0
74.3134 5.07902 0
72.7721 0.268529 0
68.0542 1.12371 0
69.457 5.38127 0
69.0048 -4.68957 0
69.1728 -1.67559 0
67.609 -1.20171 0
66.205 -0.250827 0
67.2932 4.03987 0
68.2516 1.29703 0
68.2438 -1.40426 0
66.3795 -3.29435 0
76.3161 -2.25237 0
74.0452 -0.309117 0
74.1591 0.377507 0
77.1344 2.02094 0
68.0519 -0.928304 0
67.8373 -0.073924 0
67.8171 0.210182 0
68.7591 0.536345 0
71.4019 0.461448 0
71.3191 2.68912 0
70.3706 -1.26611 0
72.0944 -0.984762 0
70.6756 3.27814 0
72.6054 5.38626 0
72.1868 -5.27085 0
71.1423 -1.14929 0
73.4411 0.91778 0
74.4146 3.03269 0
73.1924 -1.46495 0
73.5653 -0.0155073 0
74.6288 -0.0541673 0
75.7755 -0.211425 0
76.116 -1.9017 0
74.5848 0.0095229 0
73.9965 -0.00225918 0
75.2313 0.422253 0
73.9618 -2.07717 0
73.9725 -0.2073 0
68.9724 -1.09506 0
68.4595 -0.471949 0
68.3782 0.881094 0
68.9262 0.678327 0
68.273 0.908019 0
67.8541 0.322637 0
67.7948 -0.160941 0
68.2598 -1.03916 0
74.7254 0.346883 0
75.6317 0.469064 0
74.6095 -0.440315 0
74.4793 -0.0537875 0
66.9981 -0.850048 0
67.9206 -0.271181 0
67.7886 -0.544362 0
67.9226 -0.561946 0
67.8475 0.222728 0
68.02 0.831213 0
74.4515 1.46923 0
73.2276 0.270191 0
73.2371 0.000236279 0
72.1147 -0.535701 0
70.6229 -0.0180912 0
70.264 -1.84404 0
70.7152 1.19609 0
69.8727 0.309785 0
68.2232 2.81296 0
67.8709 4.99885 0
68.0495 -4.25181 0
68.6499 -2.34609 0
68.8362 -1.57362 0
68.0611 -1.71228 0
68.2846 3.20756 0
68.3643 1.53667 0
74.1196 -0.315052 0
74.3694 -0.152357 0
74.4334 0.0140529 0
75.0162 0.260517 0
69.7239 -3.51985 0
70.3612 -3.33024 0
69.89 3.1304 0
70.3098 5.73909 0
69.2046 -2.72966 0
69.8464 -1.56426 0
69.5569 2.13662 0
68.984 1.09798 0
72.8794 2.33242 0
72.1078 0.228954 0
72.4252 0.00176126 0
72.3275 0.223616 0
67.7698 0.626191 0
67.8439 -0.00429031 0
73.2731 -0.190527 0
73.4256 -1.0296 0
74.2836 0.444188 0
73.4683 0.0802238 0
68.7851 -0.740667 0
68.4621 -1.08885 0
68.9384 1.24009 0
68.2554 0.620201 0
67.8717 -0.233736 0
68.1925 -0.766693 0
67.9576 0.414749 0
67.8213 0.16739 0
65.7364 1.16112 0
67.6053 0.978045 0
73.6593 -1.66349 0
75.8239 -3.09463 0
76.7368 3.20613 0
73.6366 1.31028 0
67.6688 -1.75972 0
66.2868 -2.11321 0
71.0148 0.154411 0
70.6973 1.12069 0
70.9715 -0.0371446 0
70.4068 0.219967 0
72.5087 -0.374286 0
71.9036 -0.0550487 0
71.9006 -1.10715 0
71.4923 -0.0120945 0
72.5461 -0.168986 0
72.3449 -0.257007 0
72.7833 0.702022 0
72.4484 0.00220154 0
67.8801 0.172089 0
67.8734 0.43113 0
67.2624 0.190534 0
65.9086 0.51992 0
67.9262 -0.401049 0
67.8288 -0.257807 0
67.7486 0.0704337 0
67.7936 -0.738763 0
76.1297 -0.655876 0
74.6733 -0.722231 0
75.8633 0.707512 0
76.9984 -0.812743 0
68.0101 -0.0804743 0
68.1706 -0.425624 0
67.8345 0.0766392 0
68.274 0.221505 0
72.0717 -0.0490847 0
72.2276 -0.0813641 0
71.7436 0.58812 0
71.1807 0.123367 0
71.2529 -0.135823 0
71.2413 -0.602827 0
71.1776 -1.26375 0
71.1307 -0.241429 0
68.5344 -0.7557 0
69.267 -1.56487 0
68.6964 1.13751 0
68.4129 0.896207 0
69.0181 2.03102 0
67.958 1.23929 0
68.3791 -1.48654 0
68.9069 -2.0315 0
74.9237 -0.103368 0
75.2124 0.281367 0
74.4595 -2.10806 0
75.1154 -0.70884 0
68.0061 -1.07245 0
68.1025 -1.20449 0
68.002 0.848859 0
67.7829 0.845588 0
71.7288 -0.697852 0
71.6609 -0.0689804 0
70.8525 -0.123399 0
70.7282 -0.692616 0
72.8295 2.69795 0
74.3428 4.49233 0
73.9595 -4.76264 0
73.2402 -1.81089 0
66.6799 -2.47556 0
68.1714 -2.52543 0
72.4624 -1.73745 0
72.6715 -0.604179 0
71.8415 0.310561 0
73.8075 1.78744 0
66.2835 3.2256 0
67.4807 1.87093 0
71.6815 -0.0358648 0
72.1413 -0.368539 0
70.8624 0.290225 0
70.8896 0.0560077 0
74.1803 -0.158839 0
74.2134 -0.686907 0
74.8738 0.893571 0
74.1658 0.134255 0
71.4699 0.93371 0
70.3384 0.241802 0
71.0934 -0.208969 0
71.5493 -1.83108 0
74.1603 0.554606 0
74.4404 1.22229 0
72.7006 -1.23374 0
73.9696 -0.91203 0
71.0546 -2.34959 0
71.551 -1.06943 0
71.0851 1.77877 0
72.9029 3.87871 0
72.1265 0.0840835 0
71.7783 0.0320155 0
70.7842 -0.0868917 0
70.7063 0.248066 0
71.2589 -0.301514 0
71.3843 -0.0101767 0
70.845 -0.0276082 0
71.1761 -0.42444 0
69.3861 0.35308 0
69.2485 0.92071 0
69.5775 -0.810169 0
70.0807 -0.229799 0
70.469 1.90565 0
69.4169 1.37507 0
69.1979 -2.00913 0
68.6615 -2.10812 0
74.6718 -0.145518 0
74.5769 -0.0794591 0
74.7094 -0.0301758 0
74.9325 -0.333083 0
69.4548 2.62765 0
69.7346 1.78301 0
69.0857 -0.61812 0
68.9585 -0.231645 0
68.7539 0.190118 0
69.2321 0.623031 0
67.3927 -0.785571 0
67.9502 -1.16199 0
76.1358 -1.24678 0
74.8377 -0.872982 0
75.2901 1.98066 0
77.261 1.31177 0
68.0417 -0.986553 0
67.8643 -0.206623 0
67.7844 0.233358 0
68.0407 0.816295 0
68.223 0.0843906 0
68.2456 0.51193 0
68.4225 -0.301255 0
68.5468 -0.01261 0
66.7417 -0.313781 0
65.075 0.0463563 0
72.7083 2.02928 0
75.0767 1.50775 0
73.9647 -1.23247 0
74.5685 -2.52309 0
67.985 1.39755 0
67.6814 0.713429 0
67.8076 -0.052246 0
67.8655 -0.181386 0
70.0324 4.61284 0
68.5168 2.82785 0
69.8299 -2.82458 0
69.3695 -5.24427 0
67.7409 0.498584 0
67.8881 0.397481 0
72.796 0.948972 0
73.3211 2.1903 0
72.178 0.0994781 0
72.5062 -0.126838 0
70.8536 -0.166417 0
71.0116 -0.1305 0
71.2066 -0.0585407 0
71.8079 -0.326004 0
75.9292 -1.67577 0
75.9961 -0.149052 0
75.1869 -0.066827 0
75.5739 -0.0951984 0
67.8049 -0.058543 0
67.6393 -1.39331 0
68.2258 1.02136 0
68.4207 1.32879 0
68.6891 -1.63489 0