# vtk DataFile Version 3.0
Unstructured Grid for Triangles
ASCII
DATASET UNSTRUCTURED_GRID
POINTS 29612 DOUBLE
-0.000272397 1.23686e-05 0
-0.000295789 9.5838e-06 0
-0.000277865 -3.1235e-06 0
0.002024 0.0005 0
0.00203975 0.00049875 0
0.00205 0.0005 0
0.00203975 -0.00049875 0
0.002024 -0.0005 0
0.00205 -0.0005 0
0.0020295 0.0004975 0
0.0020295 -0.0004975 0
0.00201925 0.00049625 0
0.00201925 -0.00049625 0
-0.000529747 -0.000479887 0
-0.00055 -0.0005 0
-0.000524 -0.0005 0
-0.000505983 -0.000484325 0
-0.000498 -0.0005 0
-0.000472 -0.0005 0
-0.000483864 -0.000487761 0
-0.000446 -0.0005 0
-0.000459 -0.000484239 0
-0.000429453 -0.000424878 0
-0.000447486 -0.000420717 0
-0.000441829 -0.000436609 0
-0.000512578 -0.000462101 0
-0.000493078 -0.000453594 0
-0.00050706 -0.000439006 0
-0.000419243 -0.000477545 0
-0.000440307 -0.000471837 0
-0.00043691 -0.000486724 0
-0.000516129 -0.000420948 0
-0.000495355 -0.000415432 0
-0.000511646 -0.00040128 0
-0.000394697 -0.000481197 0
-0.000406302 -0.000455143 0
-0.000537257 -0.000388197 0
-0.000531099 -0.000407297 0
-0.000523982 -0.000388328 0
-0.000370063 -0.000472956 0
-0.000368 -0.0005 0
-0.00035308 -0.000485302 0
-0.0005072 -0.00037867 0
-0.000485506 -0.000383975 0
-0.000490949 -0.000359622 0
-0.000337127 -0.000484331 0
-0.000316 -0.0005 0
-0.000326495 -0.00047415 0
-0.00055 -0.00035 0
-0.000531201 -0.000370361 0
-0.000528367 -0.000346817 0
-0.000363898 -0.000448809 0
-0.000383315 -0.000460336 0
-3.26269e-05 -0.000415503 0
-5.99662e-05 -0.000409556 0
-5.46944e-05 -0.000429488 0
-0.000529747 0.000479887 0
-0.00055 0.0005 0
-0.00055 0.000475 0
-0.00055 0.00045 0
-0.000534834 0.000429171 0
-0.000526943 0.000442611 0
-0.000534026 0.000460176 0
-0.000531099 0.000407297 0
-0.000511672 0.000401178 0
-0.000516129 0.000420948 0
-0.000524 0.0005 0
-0.000505983 0.000484325 0
-0.000531201 0.000370361 0
-0.0005072 0.00037867 0
-0.000523982 0.000388328 0
-0.00048341 0.000469132 0
-0.000483679 0.000487539 0
-0.000528367 0.000346817 0
-0.00055 0.000325 0
-0.000525657 0.000328474 0
-0.000498 0.0005 0
-0.000530382 0.0003125 0
-0.000419243 0.000477545 0
-0.000440015 0.00047335 0
-0.000425917 0.000463678 0
-0.000435138 0.000262661 0
-0.000414982 0.000274462 0
-0.000435654 0.000285217 0
-0.000459 0.000484239 0
-0.000436852 0.000487027 0
-0.000446 0.0005 0
-0.000533308 0.000292503 0
-0.00055 0.000275 0
-0.000523377 0.000276953 0
-0.000425282 0.000446352 0
-0.000409368 0.000435728 0
-0.000406302 0.000455143 0
0.002009 0.000495 0
0.001998 0.0005 0
0.00199875 0.00049375 0
0.0019885 0.0004925 0
0.001972 0.0005 0
0.00197825 0.00049125 0
0.001968 0.00049 0
0.00195775 0.00048875 0
0.001946 0.0005 0
0.0019475 0.0004875 0
0.00193725 0.00048625 0
0.00192 0.0005 0
0.001927 0.000485 0
0.00191675 0.00048375 0
0.0019065 0.0004825 0
0.001894 0.0005 0
0.00189625 0.00048125 0
0.001886 0.00048 0
0.001868 0.0005 0
0.00187575 0.00047875 0
0.0018655 0.0004775 0
0.00185515 0.00048575 0
0.001842 0.0005 0
0.001845 0.000475 0
0.00185525 0.00047625 0
0.00182564 0.0004829 0
0.001816 0.0005 0
0.0018245 0.0004725 0
0.00183475 0.00047375 0
0.00181425 0.00047125 0
0.00180295 0.000482657 0
0.00179 0.0005 0
0.00179375 0.00046875 0
0.001804 0.00047 0
0.00178168 0.000480619 0
0.001764 0.0005 0
0.00177325 0.00046625 0
0.0017835 0.0004675 0
0.00176428 0.000476631 0
0.001763 0.000465 0
0.001738 0.0005 0
0.001751 0.000484164 0
0.00175275 0.00046375 0
0.00174025 0.000475632 0
0.001712 0.0005 0
0.00172615 0.000478449 0
0.001722 0.00046 0
0.00173225 0.00046125 0
0.0017015 0.0004575 0
0.00171243 0.00047381 0
0.00169554 0.000479999 0
0.001686 0.0005 0
0.00167507 0.000479751 0
0.00168498 0.000464861 0
0.00166 0.0005 0
0.0016558 0.000471459 0
0.00167135 0.000462887 0
0.001681 0.000455 0
0.0016605 0.0004525 0
0.00167075 0.00045375 0
0.00164059 0.000461599 0
0.0016394 0.000479551 0
0.00162881 0.00046615 0
0.00162975 0.00044875 0
0.00165025 0.00045125 0
0.00164 0.00045 0
0.00161754 0.000458641 0
0.00161722 0.000478101 0
0.00159956 0.000458294 0
0.00160925 0.00044625 0
0.0016195 0.0004475 0
0.00157667 0.000460322 0
0.00158875 0.00044375 0
0.00159194 0.000480155 0
0.001599 0.000445 0
0.0015785 0.0004425 0
0.00155808 0.000456757 0
0.00155647 0.000476701 0
0.00154059 0.000466642 0
0.00153756 0.000450083 0
0.00154839 0.000450446 0
0.00156825 0.00044125 0
0.00151954 0.000480508 0
0.00154052 0.00048477 0
0.00153 0.0005 0
0.00154775 0.00043875 0
0.00152142 0.000456625 0
0.00152821 0.000445753 0
0.0015375 0.0004375 0
0.001504 0.0005 0
0.00149644 0.000485168 0
0.00151787 0.000443178 0
0.00152725 0.00043625 0
0.00150675 0.00043375 0
0.001517 0.000435 0
0.00148119 0.000450887 0
0.00148072 0.000475756 0
0.00146584 0.000463516 0
0.00150008 0.00046396 0
0.00149351 0.00044543 0
0.0015061 0.000446252 0
0.001476 0.00043 0
0.00148625 0.00043125 0
0.00146492 0.000482975 0
0.00144888 0.000473562 0
0.00146676 0.000444259 0
0.00145255 0.000453656 0
0.00145652 0.000438669 0
0.00141401 0.000479821 0
0.001426 0.0005 0
0.0014 0.0005 0
0.00144374 0.000438862 0
0.0014555 0.0004275 0
0.001435 0.000425 0
0.00144525 0.00042625 0
0.00142746 0.000438121 0
0.00141288 0.000443191 0
0.00141707 0.000432778 0
0.0013921 0.000438992 0
0.00140355 0.00045932 0
0.00138302 0.00045922 0
0.00142912 0.000458869 0
0.00140592 0.000430037 0
0.0014145 0.0004225 0
0.00136458 0.00045869 0
0.00137106 0.00044063 0
0.001394 0.00042 0
0.00138259 0.000428915 0
0.00137484 0.000477094 0
0.00139166 0.000478902 0
0.0013586 0.000478984 0
0.00133449 0.000478649 0
0.00134717 0.000461848 0
0.00137256 0.000425134 0
0.00135323 0.000424541 0
0.00136325 0.00041625 0
0.00136122 0.00042876 0
0.00131206 0.000447284 0
0.00133168 0.000456738 0
0.00131773 0.000465243 0
0.00134756 0.000440343 0
0.00132747 0.000436463 0
0.00133483 0.000426786 0
0.00131081 0.00041867 0
0.00132382 0.000422815 0
0.00131507 0.00043122 0
0.00131059 0.000480123 0
0.0013325 0.0004125 0
0.0012915 0.0004075 0
0.0012982 0.000418199 0
0.00128915 0.000426216 0
0.00126366 0.000447574 0
0.00127331 0.000430908 0
0.00128781 0.000444872 0
0.00125336 0.000428376 0
0.00130218 0.000431077 0
0.00127894 0.000416344 0
0.00124774 0.000469608 0
0.00127668 0.000464148 0
0.00126591 0.00048331 0
0.00126722 0.000418415 0
0.00125768 0.000411931 0
0.00124326 0.000413546 0
0.0012505 0.0004025 0
0.00122408 0.000450118 0
0.00120276 0.000447432 0
0.0012139 0.000432235 0
0.00124336 0.000444132 0
0.00123056 0.000427595 0
0.00122977 0.000409049 0
0.0012185 0.000469217 0
0.00122676 0.000485947 0
0.00120525 0.000486094 0
0.00121479 0.000413153 0
0.00119547 0.000424221 0
0.00120249 0.000407448 0
0.00119925 0.00039625 0
0.00119346 0.000406114 0
0.00117479 0.000447279 0
0.00114726 0.000445259 0
0.0011571 0.000427814 0
0.00119443 0.000466611 0
0.00117447 0.000421596 0
0.00118421 0.00040752 0
0.00117409 0.000404437 0
0.00116775 0.000470073 0
0.001179 0.0004855 0
0.00115473 0.000484802 0
0.0011685 0.0003925 0
0.00117875 0.00039375 0
0.00115454 0.000400551 0
0.001148 0.00039 0
0.00115825 0.00039125 0
0.00111703 0.000423398 0
0.00113786 0.000426731 0
0.00112589 0.000443871 0
0.00113234 0.000406671 0
0.00114754 0.000413371 0
0.001106 0.000442326 0
0.00109703 0.000424261 0
0.0011275 0.0003875 0
0.00113775 0.00038875 0
0.00110211 0.000480875 0
0.00108244 0.000471951 0
0.00109312 0.000458413 0
0.00111755 0.000399116 0
0.0010944 0.000392972 0
0.00110415 0.000405876 0
0.00108839 0.000407536 0
0.00106472 0.000476905 0
0.00107274 0.000457868 0
0.00108011 0.000392415 0
0.00106885 0.000404365 0
0.00106625 0.000388708 0
0.00105286 0.000419254 0
0.00105055 0.000395469 0
0.00104215 0.000439764 0
0.00106346 0.000440629 0
0.00100945 0.000451249 0
0.00102825 0.00045614 0
0.00101189 0.000468452 0
0.00107625 0.00038125 0
0.00105575 0.00037875 0
0.001066 0.00038 0
0.00103352 0.000476905 0
0.00101803 0.00048465 0
0.00103685 0.000389398 0
0.0010245 0.00038825 0
0.00103525 0.00037625 0
0.00101092 0.000399779 0
0.00101267 0.000382619 0
0.00101382 0.00042025 0
0.00103187 0.000405286 0
0.00103359 0.000424605 0
0.000987383 0.00045447 0
0.000999411 0.000435161 0
0.0009744 0.000433145 0
0.0010045 0.0003725 0
0.00101475 0.00037375 0
0.000970845 0.000465215 0
0.000952614 0.000467664 0
0.000961768 0.000449944 0
0.00099729 0.000387704 0
0.000978901 0.00039598 0
0.000985823 0.000381492 0
0.000962289 0.000393709 0
0.000974259 0.000381279 0
0.00097375 0.00036875 0
0.000963045 0.000376631 0
0.000958 0.0005 0
0.000932 0.0005 0
0.000947542 0.00048457 0
0.000949675 0.000385245 0
0.000936214 0.000389472 0
0.000940006 0.000374906 0
0.000966411 0.000412573 0
0.000944241 0.000407079 0
0.000903569 0.000424993 0
0.000921701 0.000402409 0
0.000927439 0.000427744 0
0.000889795 0.000409067 0
0.000903071 0.00040248 0
0.000925447 0.000377721 0
0.00093275 0.00036375 0
0.000907708 0.000387127 0
0.000911303 0.000370839 0
0.000911933 0.000455145 0
0.000930678 0.000473279 0
0.000911886 0.000482603 0
0.000887724 0.000388076 0
0.000899595 0.000375116 0
0.000902 0.00036 0
0.000889241 0.00036954 0
0.000836977 0.000459472 0
0.000836223 0.000483578 0
0.000820467 0.000474142 0
0.000871227 0.000403557 0
0.000861 0.000355 0
0.000868368 0.000365714 0
0.00085484 0.00036588 0
0.000847735 0.000402845 0
0.000823121 0.000421599 0
0.000826582 0.000398147 0
0.000846943 0.00042454 0
0.000838832 0.000378613 0
0.000835569 0.000363808 0
0.000844098 0.00036291 0
0.00085075 0.00035375 0
0.000851465 0.000477164 0
0.00083025 0.00035125 0
0.000822824 0.000368659 0
0.00081446 0.000357362 0
0.000805884 0.000371794 0
0.000753471 0.000477524 0
0.000738313 0.000473927 0
0.000739102 0.000461526 0
0.00079826 0.000358588 0
0.000788607 0.000376287 0
0.000781733 0.000357987 0
0.000816783 0.000384471 0
0.000807975 0.000404095 0
0.000752138 0.000404775 0
0.000767682 0.000417043 0
0.000749617 0.000421803 0
0.000752903 0.000384008 0
0.000738293 0.000393136 0
0.000772614 0.000394048 0
0.00076863 0.000371878 0
0.000765995 0.000354121 0
0.000779 0.000345 0
0.00071811 0.000453059 0
0.000738069 0.000437967 0
0.000752085 0.000365972 0
0.000728123 0.000374583 0
0.000741845 0.000354664 0
[...]
CELL_DATA 58684
VECTORS velocity DOUBLE
64.5146 -0.0832257 0
73.8585 9.34377e-05 0
73.3097 -0.000521002 0
74.0036 -0.012491 0
73.2366 -0.00488397 0
74.0776 -0.0413985 0
73.168 -0.0322536 0
67.7661 -0.00686951 0
67.7543 -0.0216275 0
67.7469 -0.00634252 0
67.7473 -0.00833166 0
67.7278 -0.233597 0
67.7448 -0.0935657 0
67.7546 -0.0741118 0
67.7369 -0.167883 0
67.7902 -0.114458 0
67.7597 -0.132086 0
67.8819 -0.108905 0
67.7235 -0.25008 0
68.1055 -0.0880174 0
67.7736 -0.134362 0
67.8891 -0.253817 0
70.8321 -1.15431 0
67.7803 0.0141684 0
67.7664 0.0616979 0
67.7805 0.030276 0
67.7649 0.13304 0
67.7675 0.0195823 0
67.7649 0.174477 0
67.7737 0.0317044 0
67.7731 0.152355 0
67.7654 0.0198009 0
67.7365 0.160079 0
67.7893 0.0745605 0
67.5962 0.530194 0
67.7718 0.0277133 0
67.7835 0.18067 0
67.7905 0.16978 0
74.1294 -0.0220327 0
74.2097 -0.000827736 0
74.3496 -0.0666664 0
74.364 -0.0491525 0
74.4401 -0.00103266 0
74.5707 -0.0608758 0
74.5861 -0.0774944 0
74.6085 -0.0429227 0
74.6705 -0.00159947 0
74.7553 -0.0810877 0
74.7602 -0.056498 0
74.808 -0.00255302 0
74.8915 -0.0668241 0
74.8903 -0.0556626 0
74.9016 -0.024606 0
74.9254 -0.00115474 0
74.9497 -0.0305385 0
74.9501 -0.0132016 0
74.9573 0.000683645 0
74.9589 0.00241988 0
74.9539 0.0206945 0
74.9523 0.0233293 0
74.9267 0.00263343 0
74.9018 0.0896606 0
74.8722 0.0806888 0
74.7928 0.00872755 0
74.7713 0.153399 0
74.77 0.171944 0
74.711 0.134077 0
74.6222 0.00990377 0
74.5985 0.245413 0
74.5227 0.171254 0
74.4244 0.0151337 0
74.3701 0.305136 0
74.3037 0.234581 0
74.16 0.400018 0
74.1073 0.0103683 0
74.0288 0.305004 0
73.943 0.203592 0
73.7997 0.0228268 0
73.7234 0.428852 0
73.4225 0.308113 0
73.6793 0.344545 0
73.4228 0.0179001 0
73.3024 0.21873 0
73.3795 0.406665 0
72.9868 0.226231 0
73.0802 0.292746 0
73.0667 0.416589 0
72.916 0.48091 0
72.6988 0.249205 0
72.5525 0.325716 0
72.8009 0.334313 0
72.6282 0.411562 0
72.4873 0.252015 0
72.5002 0.288623 0
72.4298 0.350717 0
72.2438 0.234094 0
72.3743 0.213055 0
72.2899 0.279308 0
72.2245 0.252404 0
72.2141 0.150445 0
72.1681 0.0629219 0
72.1916 0.156269 0
72.1658 0.0123713 0
72.1379 0.0708971 0
72.1247 0.0312357 0
72.1271 0.0358608 0
72.1592 -0.00803265 0
72.1262 -0.00109757 0
72.1327 -0.0481039 0
72.1821 -0.0711722 0
72.1794 -0.0568528 0
72.1541 -0.0677739 0
72.1937 -0.139139 0
72.2126 -0.0643244 0
72.2764 -0.140639 0
72.247 -0.0876135 0
72.3241 -0.00210048 0
72.2814 -0.165328 0
72.3305 -0.198779 0
72.4343 -0.149219 0
72.4343 -0.0653234 0
72.3375 -0.0818462 0
72.4496 -0.150872 0
72.4638 -0.0271074 0
72.5249 -0.11154 0
72.4065 -0.0206374 0
72.5584 -0.074166 0
72.4197 0.0115302 0
72.5631 -0.0710769 0
72.58 0.0132505 0
72.3834 0.0903791 0
72.5486 0.100733 0
72.4061 0.0610442 0
72.5248 0.214043 0
72.3769 0.0429142 0
72.596 0.168281 0
72.4752 0.374582 0
72.2451 0.291385 0
72.1738 0.414921 0
72.3504 0.30497 0
72.4053 0.370662 0
72.1608 0.196553 0
72.2507 0.520766 0
72.1813 0.601114 0
71.8394 0.411524 0
72.0593 0.317011 0
72.1738 0.516434 0
72.0634 0.643106 0
71.8812 0.118654 0
71.7505 0.690291 0
71.7468 0.750502 0
71.4436 0.340031 0
71.634 0.38163 0
71.6412 0.588862 0
71.5515 0.705743 0
71.5275 0.0971234 0
71.516 0.802744 0
71.3348 0.736015 0
71.2235 0.378742 0
71.2374 0.505109 0
71.1206 0.265509 0
71.1885 0.608161 0
71.1146 0.0695396 0
71.1531 0.518863 0
70.9574 0.290937 0
71.0562 0.040289 0
70.9149 0.145012 0
70.9071 0.0280353 0
70.9617 -0.0223573 0
71.0789 -0.108308 0
70.8811 0.146037 0
70.8628 0.0517243 0
71.055 -0.0473632 0
70.8949 -0.232166 0
70.961 -0.339821 0
70.9051 -0.207261 0
71.1399 -0.171821 0
71.2009 -0.274438 0
70.9757 -0.457598 0
71.2593 -0.204493 0
71.0933 -0.545407 0
71.1508 -0.624464 0
71.1935 -0.75883 0
71.3315 -0.00653879 0
71.4433 -0.79192 0
71.1977 -0.574761 0
71.5248 -0.502955 0
71.6665 -0.569709 0
71.5362 -0.907596 0
71.7014 -0.898848 0
71.5213 -0.164624 0
71.7764 -0.816366 0
71.8417 -0.974291 0
71.8784 -0.920964 0
71.9196 -0.106686 0
71.8437 -0.639052 0
72.2798 -0.877882 0
72.1753 -0.482746 0
72.0738 -0.408275 0
72.3004 -0.754101 0
72.3639 -0.842301 0
71.9197 -0.114707 0
72.4842 -0.67845 0
72.5395 -0.579947 0
72.1016 -0.0259461 0
72.5438 -0.356473 0
72.3365 -0.429304 0
72.3213 -0.0950808 0
72.3937 -0.00695631 0
72.4787 -0.233539 0
72.6974 -0.228901 0
72.1471 -0.0108325 0
72.6107 0.0174322 0
72.6698 -0.00857691 0
72.5406 0.221722 0
72.0341 -0.0020966 0
72.3762 0.15634 0
72.5185 0.322526 0
72.1014 0.0166158 0
72.4702 0.397499 0
72.1521 0.0868632 0
72.4076 0.444223 0
72.0061 -0.0159066 0
72.1571 0.278139 0
72.2434 0.454402 0
72.0094 0.00158964 0
72.0146 0.447724 0
71.8268 0.209031 0
72.0352 0.188361 0
71.9765 -0.0464316 0
71.7437 0.293632 0
71.9741 -0.160537 0
72.1278 -0.0496567 0
71.9038 0.058305 0
71.6161 0.0711511 0
71.5475 0.109913 0
72.0515 -0.282277 0
71.6621 -0.331424 0
71.5148 -0.526498 0
72.2169 -0.113018 0
71.6452 -0.872852 0
71.48 -0.734605 0
71.918 -0.618075 0
72.2276 -0.47766 0
72.2158 -0.646293 0
71.5903 -1.14632 0
72.5575 -0.0154527 0
71.6781 -1.37671 0
71.7896 -1.55163 0
71.7506 -1.5695 0
72.7369 -0.589587 0
72.2778 -1.62414 0
72.3653 -1.92447 0
72.8831 -0.0180698 0
72.4718 -2.33392 0
73.0044 -2.32958 0
72.722 -1.4321 0
72.8915 -0.741873 0
72.8046 -2.52283 0
73.0221 -0.937368 0
73.218 -0.123001 0
72.9846 -1.94272 0
73.2558 -2.60688 0
73.5974 -2.55835 0
73.3546 -0.47745 0
73.8752 -2.07461 0
73.752 -2.49178 0
73.3836 -0.216574 0
74.0064 -2.62969 0
74.373 -2.45937 0
74.2045 -1.41519 0
73.3859 -0.0124286 0
74.6747 -2.15634 0
74.0778 -0.65764 0
74.3672 -0.642433 0
74.6141 -1.87135 0
74.4124 -1.35578 0
75.2151 -1.57238 0
73.5787 -0.126289 0
75.1357 -1.76767 0
74.8407 -0.871754 0
75.372 -0.911258 0
73.457 -0.0492712 0
75.3919 -0.116301 0
75.1996 0.11317 0
72.7778 0.0802192 0
75.5576 -0.504469 0
75.5759 0.0104225 0
73.7236 0.524457 0
73.4026 0.168834 0
74.6791 -0.00100425 0
75.4988 0.517487 0
72.9645 0.148062 0
75.1229 1.23143 0
75.4124 0.673613 0
75.4081 0.862597 0
72.5391 0.746656 0
74.3217 1.40295 0
75.1011 1.50658 0
72.5107 0.122121 0
74.9415 1.88943 0
74.9032 1.85117 0
74.2056 2.933 0
71.2726 0.209788 0
74.864 2.67501 0
73.5828 1.89536 0
72.2441 0.850228 0
72.1594 1.69609 0
74.7265 2.96655 0
74.175 3.38429 0
71.6168 0.348477 0
74.0535 3.85237 0
73.1329 -0.0104164 0
73.1006 -0.00079681 0
73.0189 -0.0383373 0
73.0116 -0.0325 0
72.9681 -0.00123714 0
72.8818 -0.0405429 0
72.8763 -0.0474477 0
72.8623 -0.0294708 0
72.8261 -0.00205097 0
72.7806 -0.0449714 0
72.7792 -0.0303735 0
72.7594 -0.0018928 0
72.7181 -0.0347735 0
72.7201 -0.0305258 0
72.7158 -0.0154395 0
72.7057 -0.00128403 0
72.6952 -0.0156719 0
72.6959 -0.00583502 0
72.6964 0.000778291 0
72.7049 0.0104481 0
72.709 0.0198784 0
72.7477 0.0486444 0
72.7115 0.0157677 0
72.7648 0.0433818 0
72.8224 0.0821514 0
72.7688 0.0561656 0
72.8487 0.107429 0
72.8818 0.0843273 0
72.9433 0.145542 0
72.8674 0.0739561 0
72.9836 0.104516 0
73.0722 0.19059 0
72.9897 0.087276 0
73.1908 0.227447 0
73.2001 0.213076 0
73.246 0.158378 0
73.1334 0.115807 0
73.2544 0.171439 0
73.3755 0.152084 0
73.2957 0.115773 0
73.4923 0.268135 0
73.4553 0.0997478 0
73.5466 0.156862 0
73.4504 0.144594 0
73.5597 0.195858 0
73.6901 0.173587 0
73.6882 0.0845298 0
73.6501 0.165088 0
73.7547 0.160077 0
73.7507 0.140322 0
73.7709 0.0272616 0
73.7715 0.0415163 0
73.7862 0.0450322 0
73.7848 0.0106143 0
73.736 -0.021179 0
73.7684 -0.0309593 0
73.7201 -0.0958655 0
73.6215 -0.156303 0
73.697 -0.102862 0
73.612 -0.216927 0
73.6057 -0.254227 0
73.524 -0.213069 0
73.4207 -0.148251 0
73.3606 -0.354979 0
73.6446 -0.0568851 0
73.3033 -0.440859 0
73.0445 -0.586126 0
73.146 -0.469207 0
73.2242 -0.268067 0
72.9408 -0.63637 0
72.8713 -0.551005 0
72.6011 -0.286603 0
72.9768 -0.527212 0
72.685 -0.6094 0
72.5486 -0.664653 0
72.7995 -0.165437 0
72.5733 -0.491703 0
72.2524 -0.72654 0
72.4479 -0.387194 0
72.1573 -0.617481 0
71.9503 -0.640286 0
72.1009 -0.504313 0
71.8732 -0.174106 0
71.8686 -0.524059 0
71.7357 -0.605329 0
71.7906 -0.138604 0
71.6466 -0.542205 0
71.8347 -0.419124 0
71.4978 -0.361906 0
71.7266 -0.303954 0
71.4988 -0.436597 0
71.3678 -0.257862 0
71.4829 -0.0798296 0
71.494 -0.255997 0
71.3441 -0.188046 0
71.4085 -0.100827 0
71.5036 -0.0993238 0
71.3297 -0.07871 0
71.3437 0.0342972 0
71.4596 0.00939173 0
71.4525 0.0428884 0
71.3926 0.120945 0
71.4001 0.179871 0
71.4515 0.0259812 0
71.4567 0.234267 0
71.5126 0.318008 0
71.6477 0.100745 0
71.5466 0.160091 0
71.6575 0.427924 0
71.6722 0.357934 0
71.5564 0.0808661 0
71.7191 0.417114 0
71.8464 0.441437 0
71.8068 0.139533 0
71.7899 0.360756 0
72.0281 0.516687 0
72.002 0.337143 0
71.7175 0.111012 0
72.0946 0.418169 0
72.2284 0.392032 0
71.9076 0.116213 0
72.1834 0.216424 0
71.9878 0.0819538 0
72.2249 0.146272 0
71.9656 0.130199 0
72.3236 0.259206 0
72.3649 0.0324275 0
71.9914 0.00378768 0
72.3248 0.0313511 0
72.3245 -0.160246 0
71.9291 -0.0752788 0
72.2545 0.0572078 0
72.2478 -0.205445 0
72.2939 -0.299985 0
71.9202 -0.0315365 0
72.2346 -0.335546 0
72.0947 -0.581342 0
72.0475 -0.504444 0
71.7618 -0.137757 0
71.8562 -0.573324 0
71.85 -0.156707 0
72.1582 -0.319036 0
71.9371 -0.626134 0
71.7134 -0.753128 0
71.6958 -0.782055 0
71.7751 -0.00569403 0
71.4448 -0.864644 0
71.4158 -0.794371 0
71.316 -0.555183 0
71.2923 -0.221992 0
71.1603 -0.164703 0
71.2924 -0.693728 0
71.4813 -0.180745 0
71.0377 -0.579581 0
71.0691 -0.568329 0
71.0746 -0.38071 0
71.1659 -0.0823276 0
70.9098 -0.267872 0
70.7758 -0.206122 0
71.0566 0.00628263 0
71.0583 -0.0868498 0
70.903 -0.0529578 0
70.7163 0.166247 0
71.1096 -0.0927628 0
70.7731 0.224521 0
70.757 0.394318 0
71.1022 0.0887554 0
70.9286 0.79481 0
70.9349 0.800116 0
71.1644 0.862872 0
71.1984 0.306369 0
71.1 0.288063 0
70.949 0.871378 0
71.1069 0.137866 0
71.1884 1.24175 0
71.2593 1.23482 0
71.3752 1.23349 0
71.3315 0.150212 0
71.6389 1.54417 0
71.6631 1.63515 0
71.5544 0.779085 0
72.0242 1.21004 0
71.7096 0.640639 0
71.8236 1.56358 0
71.5804 0.359266 0
72.2107 1.87962 0
72.2556 1.79077 0
71.6674 0.313528 0
72.4078 1.55908 0
72.8721 1.73295 0
72.6324 1.75809 0
72.425 0.344686 0
73.3586 1.64225 0
73.4171 1.73197 0
72.3025 1.1441 0
72.9632 1.14407 0
72.4592 0.632188 0
73.6682 1.58869 0
72.6347 0.168523 0
73.7105 1.34211 0
73.622 1.17621 0
72.4096 0.144549 0
73.3857 1.04144 0
73.8841 0.889724 0
73.8928 0.772735 0
73.0217 0.275632 0
73.8726 0.625205 0
73.8228 0.545296 0
73.235 0.771752 0
73.5797 0.408582 0
73.0884 0.231861 0
73.7475 0.369476 0
73.0449 0.0931104 0
73.6778 0.264392 0
73.6036 0.225469 0
72.9526 0.0681669 0
73.539 0.258286 0
73.3826 0.147515 0
73.2533 0.174204 0
73.1358 0.132083 0
73.3358 0.188643 0
73.1751 0.228618 0
73.4861 0.286074 0
73.2454 0.318031 0
73.0871 0.104304 0
73.2764 0.230115 0
73.0247 0.0530056 0
73.0894 0.365236 0
73.0575 0.467421 0
73.0313 0.0331295 0
73.2166 0.495802 0
73.0931 0.671176 0
73.1662 0.793224 0
72.9288 0.0601933 0
73.2713 0.946552 0
73.3165 0.883303 0
72.9982 0.134103 0
73.4202 1.04679 0
73.4802 0.491747 0
73.1206 0.197785 0
73.0595 0.141002 0
73.653 1.14561 0
73.6988 0.787653 0
74.0387 1.03232 0
72.8578 0.0125915 0
73.9368 0.51215 0
74.3558 0.739138 0
72.864 0.030836 0
73.7481 0.440509 0
74.6013 0.398184 0
73.824 -0.00683832 0
72.917 -0.0110466 0
74.633 0.113159 0
74.7819 -0.158041 0
73.4507 0.201494 0
73.8335 -0.794984 0
72.6565 -1.04743 0
74.5281 -0.446162 0
72.4318 -0.092306 0
74.9081 -0.951521 0
73.595 4.2599 0
73.9847 3.77991 0
70.7129 1.13563 0
73.5669 4.23052 0
72.2464 3.99709 0
73.0724 4.66885 0
70.9963 0.439293 0
72.5681 4.82816 0
71.9468 4.82976 0
70.3179 0.582145 0
71.9228 5.10171 0
74.9251 -1.35744 0
72.5237 -0.0467609 0
74.8991 -1.63468 0
74.1868 -2.15309 0
73.6788 -1.79394 0
72.2019 -0.103564 0
74.4693 -2.53359 0
71.2851 4.75699 0
74.1968 -3.47295 0
72.257 -0.572598 0
74.0609 -3.39205 0
73.4608 -4.1208 0
69.7541 1.41738 0
73.2945 -4.14407 0
73.6092 -1.79395 0
73.6987 -3.62807 0
72.3237 -2.71556 0
71.2394 -0.414215 0
73.0722 -3.80114 0
72.6787 -4.20475 0
70.9118 5.00945 0
72.6915 -4.18565 0
71.642 -0.203541 0
72.1014 -4.56162 0
71.7551 -5.02294 0
70.9491 -0.283161 0
71.1474 -5.26082 0
71.3121 -3.71958 0
69.9314 -0.393323 0
70.6061 -5.41695 0
70.3852 -2.9664 0
71.1422 -2.09268 0
70.9101 -4.58412 0
70.2233 -4.95758 0
71.3096 2.59063 0
69.3194 0.323514 0
70.8698 1.74769 0
70.2285 -0.0415765 0
69.9785 -5.38189 0
70.7723 4.76056 0
69.2273 0.225895 0
70.3121 4.05283 0
69.4597 -5.41263 0
70.0176 -1.02841 0
68.9814 -3.97106 0
70.3116 5.40942 0
68.7007 1.1989 0
70.2966 5.34278 0
69.0648 4.55326 0
68.832 0.23951 0
69.4971 4.77062 0
69.2686 -4.0533 0
69.8036 -0.304838 0
68.9282 -5.56864 0
68.9841 -5.41213 0
69.6622 5.11612 0
68.5622 4.94241 0
68.5527 0.0226425 0
69.1581 5.09269 0
68.1025 3.05448 0
68.5186 1.3555 0
68.3301 -5.57364 0
68.8157 -0.694942 0
68.5648 -5.47233 0
67.7094 5.18801 0
67.9547 -5.18055 0
68.4105 -0.699048 0
68.2294 -2.28566 0
67.261 -5.05512 0
68.9983 -2.64766 0
67.1249 -4.86726 0
68.2135 -0.202673 0
66.5293 -4.73382 0
67.8788 1.69292 0
68.2507 0.263127 0
67.5156 4.35472 0
68.0659 0.0702268 0
67.2768 5.1167 0
67.2217 4.80128 0
67.9379 0.112496 0
66.7913 4.1582 0
67.8982 0.0779147 0
67.4047 -4.36391 0
68.2129 -0.384436 0
67.9542 3.69532 0
67.6021 0.356089 0
66.6221 3.89794 0
66.4736 -4.74708 0
68.2978 -0.160251 0
65.3629 -4.10756 0
67.6687 -0.38743 0
65.8793 -4.06092 0
67.5714 1.51461 0
67.7716 0.136636 0
67.8962 -3.53147 0
67.7736 -0.13931 0
65.4746 -3.88279 0
66.2294 3.48867 0
66.5255 -3.05988 0
67.7448 -0.254946 0
65.7199 -3.36908 0
67.1163 1.84205 0
65.6856 1.0313 0
65.9423 2.97503 0
67.3339 -0.686289 0
65.6152 -3.69301 0
67.6616 0.291613 0
65.7568 4.10452 0
67.128 -1.76769 0
67.7761 -0.107684 0
65.4066 -3.40249 0
65.7031 3.67821 0
67.58 0.351395 0
65.7071 2.82503 0
65.5225 2.76748 0
67.6371 0.272126 0
65.0315 2.44374 0
64.8075 -3.05979 0
67.6778 -0.298624 0
64.5544 -3.08331 0
66.3669 -1.57649 0
67.7267 -0.224924 0
64.2452 -2.23472 0
64.9532 3.13571 0
67.4796 0.284168 0
66.0138 1.89926 0
64.6271 -2.0107 0
67.5306 -0.289061 0
64.1314 -1.91266 0
64.1803 2.20256 0
67.5282 0.127137 0
64.4728 2.08092 0
64.7322 1.62517 0
67.768 0.0182883 0
64.1459 1.75917 0
65.08 -1.31495 0
67.4328 -0.399418 0
64.5123 -1.23149 0
63.6394 -0.904402 0
66.8382 -0.790784 0
63.8046 -0.81478 0
66.5576 0.412311 0
67.6292 0.0370571 0
65.7544 1.3154 0
64.0869 1.31896 0
67.4303 -0.0465484 0
63.6678 0.751378 0
67.1334 -0.284394 0
67.7245 -0.146041 0
63.6834 -0.474642 0
64.044 -0.35525 0
67.6436 -0.0905824 0
65.7827 -0.0956688 0
64.303 0.041278 0
67.6835 -0.0845697 0
66.5664 -3.95683 0
67.6989 -0.354162 0
67.7421 0.153377 0
66.8812 4.29327 0
67.6016 -5.19617 0
69.2628 -0.603972 0
68.4441 0.576336 0
68.9501 5.36169 0
67.6359 0.202403 0
64.6111 2.98577 0
64.3573 -2.22775 0
67.6861 -0.237579 0
67.6266 -0.431725 0
66.8782 -2.61688 0
67.6277 0.369883 0
67.7764 0.187551 0
67.6266 -0.0430244 0
64.0505 1.11208 0
68.0208 0.272434 0
67.6172 0.865401 0
67.8061 -0.971156 0
68.443 -0.457451 0
70.9824 -0.647706 0
71.4557 -5.08635 0
72.1477 4.83419 0
70.7864 0.255783 0
67.2461 0.862356 0
67.7071 4.97398 0
67.3466 -4.80088 0
67.974 -1.62407 0
66.6387 -1.20523 0
64.9083 -0.450486 0
65.7794 3.60928 0
67.4116 1.03853 0
67.3449 -1.27792 0
64.8733 -3.42102 0
74.772 -2.10757 0
72.098 -0.265325 0
72.1975 0.405548 0
74.8795 2.38014 0
67.6005 -0.50988 0
67.774 -0.0528738 0
67.7533 0.145061 0
67.9127 0.43229 0
69.6246 0.43624 0
69.5122 2.48066 0
68.8855 -1.27833 0
70.3147 -1.00087 0
68.931 2.98369 0
70.5864 5.07314 0
70.3329 -5.42302 0
69.5008 -1.18051 0
71.4112 0.926517 0
72.2607 2.9819 0
71.3258 -1.44137 0
71.6248 -0.0130004 0
72.858 0.0391167 0
74.1304 0.892697 0
75.3983 -0.927016 0
73.0853 0.0010674 0
72.9928 0.0118961 0
73.0674 0.534757 0
74.3381 -2.26011 0
73.456 -0.250772 0
67.9684 -1.03608 0
67.758 -0.360546 0
67.6499 0.655302 0
67.9889 0.557062 0
67.616 0.60041 0
67.7523 0.227077 0
67.7691 -0.135279 0
67.6178 -0.69708 0
72.9888 0.440606 0
73.9188 0.785267 0
72.7168 -0.257233 0
72.6135 -0.0156148 0
65.8712 -0.967323 0
67.6644 -0.169417 0
67.1754 -0.39001 0
67.6461 -0.335059 0
67.7168 0.203611 0
67.4952 0.436814 0
73.54 0.180653 0
73.1188 0.133399 0
73.0219 -0.0220496 0
72.391 -2.09807 0
69.1098 -0.0219921 0
68.7965 -1.84233 0
69.0813 1.08029 0
68.5267 0.266514 0
66.9166 2.3935 0
66.2508 4.56887 0
66.4761 -4.35599 0
67.4181 -2.31099 0
67.773 -1.51211 0
67.0093 -1.69139 0
66.8955 2.78729 0
67.3939 1.29336 0
73.5318 -0.335713 0
73.4586 -0.109613 0
72.9509 0.0445856 0
73.2357 0.425172 0
68.1206 -3.59637 0
68.7289 -3.42132 0
68.323 2.79811 0
68.4846 5.34848 0
67.7884 -2.72492 0
68.473 -1.53701 0
68.1635 1.84847 0
67.9728 0.913472 0
73.8519 1.0845 0
72.8547 0.162335 0
72.4047 -0.0200318 0
71.5167 -0.484261 0
66.9949 0.422309 0
67.7184 0.0237936 0
73.0505 -0.28486 0
73.562 -1.40601 0
73.2198 0.216795 0
73.0364 0.0346353 0
67.8842 -0.66598 0
67.6675 -0.891805 0
67.9373 1.03275 0
67.7153 0.338873 0
67.7693 -0.168495 0
67.7036 -0.404178 0
67.7441 0.20763 0
67.755 0.151638 0
64.3788 0.868378 0
66.6324 0.771413 0
71.7943 -1.64197 0
74.1393 -3.10832 0
74.3896 3.28708 0
71.5784 1.29906 0
66.4961 -1.7966 0
64.8878 -2.2414 0
72.0659 0.264644 0
72.4031 1.73806 0
71.1597 0.0813781 0
71.5587 1.62986 0
71.9032 0.352982 0
71.9954 -0.0274366 0
72.6321 0.143413 0
72.0511 -0.00296407 0
72.4893 -0.418461 0
72.2046 -1.00913 0
73.1667 0.328982 0
72.9185 0.00988242 0
67.7047 0.152353 0
67.3803 0.197551 0
66.2908 0.0621252 0
64.577 0.253143 0
67.5454 -0.225136 0
67.6958 -0.197108 0
67.0893 0.006368 0
67.027 -0.64419 0
74.7132 0.178355 0
72.7966 -0.508259 0
73.9869 1.00229 0
75.4635 0.184342 0
67.741 -0.0421466 0
67.728 -0.218459 0
67.7719 0.0481881 0
67.7822 0.114384 0
72.0461 -0.128019 0
71.9041 -0.178161 0
72.7691 0.478226 0
72.2555 0.182791 0
71.03 0.025743 0
70.82 0.241439 0
72.5805 -0.655349 0
72.0338 -0.117039 0
67.7658 -0.57658 0
68.1025 -1.49602 0
67.7718 0.949841 0
67.6735 0.708964 0
67.7991 1.7019 0
67.0633 0.996871 0
67.4578 -1.39324 0
67.7088 -1.98234 0
73.1598 0.179201 0
73.1868 0.621087 0
74.768 -1.91756 0
74.3824 -0.418239 0
67.3088 -0.802398 0
67.3549 -0.943185 0
67.4134 0.482742 0
66.9615 0.615415 0
70.8612 -0.435411 0
71.2269 -0.190413 0
71.728 -0.168923 0
72.1123 -0.894917 0
70.8154 2.55214 0
72.1814 4.28259 0
72.1041 -4.9068 0
71.3982 -1.81202 0
65.2691 -2.58724 0
66.8703 -2.53959 0
70.673 -1.76147 0
70.8215 -0.599108 0
69.9949 0.292025 0
71.7261 1.79418 0
64.8385 2.83103 0
66.3301 1.5668 0
72.0208 0.00134831 0
72.1528 0.136722 0
71.8496 0.635674 0
71.7804 0.161071 0
72.2372 -0.12489 0
72.2877 -0.580131 0
72.9376 1.05455 0
72.2707 0.155498 0
69.688 0.855751 0
68.8344 0.212864 0
69.4711 -0.20545 0
69.8396 -1.87572 0
73.2493 0.22404 0
73.4598 0.201895 0
73.3002 -2.42211 0
73.7861 -0.988848 0
69.4066 -2.41768 0
69.8588 -1.10174 0
69.3608 1.63079 0
70.8602 3.6533 0
71.68 -0.638214 0
71.578 -0.0995045 0
71.5268 -0.183635 0
71.2408 -0.723191 0
72.1015 -0.102089 0
72.0536 -0.00237668 0
71.2808 0.120567 0
70.8697 0.236815 0
68.2504 0.284906 0
68.1467 0.763448 0
68.3577 -0.778047 0
68.7059 -0.213697 0
68.8881 1.68854 0
68.2006 1.14913 0
67.9174 -1.9659 0
67.4984 -2.06888 0
72.8766 0.0101591 0
72.7726 -0.00473132 0
73.3416 0.0524482 0
73.9235 -0.130241 0
68.018 2.28866 0
68.3707 1.50728 0
68.0401 -0.581727 0
67.9925 -0.211246 0
67.9372 0.150306 0
68.1402 0.517359 0
66.3735 -0.85039 0
67.1453 -0.982027 0
74.6266 -0.757593 0
72.992 -0.669445 0
73.1341 2.10483 0
75.0832 1.83737 0
67.5532 -0.560245 0
67.7762 -0.166457 0
67.7045 0.202482 0
67.612 0.384324 0
67.7799 0.0397872 0
67.7424 0.281503 0
67.7823 -0.212208 0
67.8275 -0.0126797 0
65.5298 -0.493798 0
63.6704 -0.210674 0
70.7152 1.92987 0
73.0284 1.65273 0
72.0654 -1.15487 0
72.7696 -2.4917 0
67.0531 1.14864 0
66.8173 0.502923 0
67.7744 -0.0339238 0
67.3949 -0.115521 0
68.314 4.23781 0
67.1909 2.41969 0
68.3231 -2.86323 0
67.6258 -5.38654 0
67.07 0.318665 0
67.5512 0.221415 0
73.2565 0.419886 0
73.8644 0.688627 0
71.7655 -1.09686 0
72.47 -0.342476 0
71.7358 -0.185858 0
71.9497 -0.0686549 0
71.0679 0.00234518 0
71.0693 -0.47427 0
75.4086 -0.971321 0
74.549 0.25531 0
73.3709 0.384107 0
73.7725 1.00021 0
67.2086 -0.0718103 0
66.5681 -1.41202 0
67.5337 0.707963 0
67.5569 1.09567 0
67.6492 -1.57459 0