# vtk DataFile Version 3.0
Unstructured Grid for Triangles
ASCII
DATASET UNSTRUCTURED_GRID
POINTS 29612 DOUBLE
-0.000272397 1.23686e-05 0
-0.000295789 9.5838e-06 0
-0.000277865 -3.1235e-06 0
0.002024 0.0005 0
0.00203975 0.00049875 0
0.00205 0.0005 0
0.00203975 -0.00049875 0
0.002024 -0.0005 0
0.00205 -0.0005 0
0.0020295 0.0004975 0
0.0020295 -0.0004975 0
0.00201925 0.00049625 0
0.00201925 -0.00049625 0
-0.000529747 -0.000479887 0
-0.00055 -0.0005 0
-0.000524 -0.0005 0
-0.000505983 -0.000484325 0
-0.000498 -0.0005 0
-0.000472 -0.0005 0
-0.000483864 -0.000487761 0
-0.000446 -0.0005 0
-0.000459 -0.000484239 0
-0.000429453 -0.000424878 0
-0.000447486 -0.000420717 0
-0.000441829 -0.000436609 0
-0.000512578 -0.000462101 0
-0.000493078 -0.000453594 0
-0.00050706 -0.000439006 0
-0.000419243 -0.000477545 0
-0.000440307 -0.000471837 0
-0.00043691 -0.000486724 0
-0.000516129 -0.000420948 0
-0.000495355 -0.000415432 0
-0.000511646 -0.00040128 0
-0.000394697 -0.000481197 0
-0.000406302 -0.000455143 0
-0.000537257 -0.000388197 0
-0.000531099 -0.000407297 0
-0.000523982 -0.000388328 0
-0.000370063 -0.000472956 0
-0.000368 -0.0005 0
-0.00035308 -0.000485302 0
-0.0005072 -0.00037867 0
-0.000485506 -0.000383975 0
-0.000490949 -0.000359622 0
-0.000337127 -0.000484331 0
-0.000316 -0.0005 0
-0.000326495 -0.00047415 0
-0.00055 -0.00035 0
-0.000531201 -0.000370361 0
-0.000528367 -0.000346817 0
-0.000363898 -0.000448809 0
-0.000383315 -0.000460336 0
-3.26269e-05 -0.000415503 0
-5.99662e-05 -0.000409556 0
-5.46944e-05 -0.000429488 0
-0.000529747 0.000479887 0
-0.00055 0.0005 0
-0.00055 0.000475 0
-0.00055 0.00045 0
-0.000534834 0.000429171 0
-0.000526943 0.000442611 0
-0.000534026 0.000460176 0
-0.000531099 0.000407297 0
-0.000511672 0.000401178 0
-0.000516129 0.000420948 0
-0.000524 0.0005 0
-0.000505983 0.000484325 0
-0.000531201 0.000370361 0
-0.0005072 0.00037867 0
-0.000523982 0.000388328 0
-0.00048341 0.000469132 0
-0.000483679 0.000487539 0
-0.000528367 0.000346817 0
-0.00055 0.000325 0
-0.000525657 0.000328474 0
-0.000498 0.0005 0
-0.000530382 0.0003125 0
-0.000419243 0.000477545 0
-0.000440015 0.00047335 0
-0.000425917 0.000463678 0
-0.000435138 0.000262661 0
-0.000414982 0.000274462 0
-0.000435654 0.000285217 0
-0.000459 0.000484239 0
-0.000436852 0.000487027 0
-0.000446 0.0005 0
-0.000533308 0.000292503 0
-0.00055 0.000275 0
-0.000523377 0.000276953 0
-0.000425282 0.000446352 0
-0.000409368 0.000435728 0
-0.000406302 0.000455143 0
0.002009 0.000495 0
0.001998 0.0005 0
0.00199875 0.00049375 0
0.0019885 0.0004925 0
0.001972 0.0005 0
0.00197825 0.00049125 0
0.001968 0.00049 0
0.00195775 0.00048875 0
0.001946 0.0005 0
0.0019475 0.0004875 0
0.00193725 0.00048625 0
0.00192 0.0005 0
0.001927 0.000485 0
0.00191675 0.00048375 0
0.0019065 0.0004825 0
0.001894 0.0005 0
0.00189625 0.00048125 0
0.001886 0.00048 0
0.001868 0.0005 0
0.00187575 0.00047875 0
0.0018655 0.0004775 0
0.00185515 0.00048575 0
0.001842 0.0005 0
0.001845 0.000475 0
0.00185525 0.00047625 0
0.00182564 0.0004829 0
0.001816 0.0005 0
0.0018245 0.0004725 0
0.00183475 0.00047375 0
0.00181425 0.00047125 0
0.00180295 0.000482657 0
0.00179 0.0005 0
0.00179375 0.00046875 0
0.001804 0.00047 0
0.00178168 0.000480619 0
0.001764 0.0005 0
0.00177325 0.00046625 0
0.0017835 0.0004675 0
0.00176428 0.000476631 0
0.001763 0.000465 0
0.001738 0.0005 0
0.001751 0.000484164 0
0.00175275 0.00046375 0
0.00174025 0.000475632 0
0.001712 0.0005 0
0.00172615 0.000478449 0
0.001722 0.00046 0
0.00173225 0.00046125 0
0.0017015 0.0004575 0
0.00171243 0.00047381 0
0.00169554 0.000479999 0
0.001686 0.0005 0
0.00167507 0.000479751 0
0.00168498 0.000464861 0
0.00166 0.0005 0
0.0016558 0.000471459 0
0.00167135 0.000462887 0
0.001681 0.000455 0
0.0016605 0.0004525 0
0.00167075 0.00045375 0
0.00164059 0.000461599 0
0.0016394 0.000479551 0
0.00162881 0.00046615 0
0.00162975 0.00044875 0
0.00165025 0.00045125 0
0.00164 0.00045 0
0.00161754 0.000458641 0
0.00161722 0.000478101 0
0.00159956 0.000458294 0
0.00160925 0.00044625 0
0.0016195 0.0004475 0
0.00157667 0.000460322 0
0.00158875 0.00044375 0
0.00159194 0.000480155 0
0.001599 0.000445 0
0.0015785 0.0004425 0
0.00155808 0.000456757 0
0.00155647 0.000476701 0
0.00154059 0.000466642 0
0.00153756 0.000450083 0
0.00154839 0.000450446 0
0.00156825 0.00044125 0
0.00151954 0.000480508 0
0.00154052 0.00048477 0
0.00153 0.0005 0
0.00154775 0.00043875 0
0.00152142 0.000456625 0
0.00152821 0.000445753 0
0.0015375 0.0004375 0
0.001504 0.0005 0
0.00149644 0.000485168 0
0.00151787 0.000443178 0
0.00152725 0.00043625 0
0.00150675 0.00043375 0
0.001517 0.000435 0
0.00148119 0.000450887 0
0.00148072 0.000475756 0
0.00146584 0.000463516 0
0.00150008 0.00046396 0
0.00149351 0.00044543 0
0.0015061 0.000446252 0
0.001476 0.00043 0
0.00148625 0.00043125 0
0.00146492 0.000482975 0
0.00144888 0.000473562 0
0.00146676 0.000444259 0
0.00145255 0.000453656 0
0.00145652 0.000438669 0
0.00141401 0.000479821 0
0.001426 0.0005 0
0.0014 0.0005 0
0.00144374 0.000438862 0
0.0014555 0.0004275 0
0.001435 0.000425 0
0.00144525 0.00042625 0
0.00142746 0.000438121 0
0.00141288 0.000443191 0
0.00141707 0.000432778 0
0.0013921 0.000438992 0
0.00140355 0.00045932 0
0.00138302 0.00045922 0
0.00142912 0.000458869 0
0.00140592 0.000430037 0
0.0014145 0.0004225 0
0.00136458 0.00045869 0
0.00137106 0.00044063 0
0.001394 0.00042 0
0.00138259 0.000428915 0
0.00137484 0.000477094 0
0.00139166 0.000478902 0
0.0013586 0.000478984 0
0.00133449 0.000478649 0
0.00134717 0.000461848 0
0.00137256 0.000425134 0
0.00135323 0.000424541 0
0.00136325 0.00041625 0
0.00136122 0.00042876 0
0.00131206 0.000447284 0
0.00133168 0.000456738 0
0.00131773 0.000465243 0
0.00134756 0.000440343 0
0.00132747 0.000436463 0
0.00133483 0.000426786 0
0.00131081 0.00041867 0
0.00132382 0.000422815 0
0.00131507 0.00043122 0
0.00131059 0.000480123 0
0.0013325 0.0004125 0
0.0012915 0.0004075 0
0.0012982 0.000418199 0
0.00128915 0.000426216 0
0.00126366 0.000447574 0
0.00127331 0.000430908 0
0.00128781 0.000444872 0
0.00125336 0.000428376 0
0.00130218 0.000431077 0
0.00127894 0.000416344 0
0.00124774 0.000469608 0
0.00127668 0.000464148 0
0.00126591 0.00048331 0
0.00126722 0.000418415 0
0.00125768 0.000411931 0
0.00124326 0.000413546 0
0.0012505 0.0004025 0
0.00122408 0.000450118 0
0.00120276 0.000447432 0
0.0012139 0.000432235 0
0.00124336 0.000444132 0
0.00123056 0.000427595 0
0.00122977 0.000409049 0
0.0012185 0.000469217 0
0.00122676 0.000485947 0
0.00120525 0.000486094 0
0.00121479 0.000413153 0
0.00119547 0.000424221 0
0.00120249 0.000407448 0
0.00119925 0.00039625 0
0.00119346 0.000406114 0
0.00117479 0.000447279 0
0.00114726 0.000445259 0
0.0011571 0.000427814 0
0.00119443 0.000466611 0
0.00117447 0.000421596 0
0.00118421 0.00040752 0
0.00117409 0.000404437 0
0.00116775 0.000470073 0
0.001179 0.0004855 0
0.00115473 0.000484802 0
0.0011685 0.0003925 0
0.00117875 0.00039375 0
0.00115454 0.000400551 0
0.001148 0.00039 0
0.00115825 0.00039125 0
0.00111703 0.000423398 0
0.00113786 0.000426731 0
0.00112589 0.000443871 0
0.00113234 0.000406671 0
0.00114754 0.000413371 0
0.001106 0.000442326 0
0.00109703 0.000424261 0
0.0011275 0.0003875 0
0.00113775 0.00038875 0
0.00110211 0.000480875 0
0.00108244 0.000471951 0
0.00109312 0.000458413 0
0.00111755 0.000399116 0
0.0010944 0.000392972 0
0.00110415 0.000405876 0
0.00108839 0.000407536 0
0.00106472 0.000476905 0
0.00107274 0.000457868 0
0.00108011 0.000392415 0
0.00106885 0.000404365 0
0.00106625 0.000388708 0
0.00105286 0.000419254 0
0.00105055 0.000395469 0
0.00104215 0.000439764 0
0.00106346 0.000440629 0
0.00100945 0.000451249 0
0.00102825 0.00045614 0
0.00101189 0.000468452 0
0.00107625 0.00038125 0
0.00105575 0.00037875 0
0.001066 0.00038 0
0.00103352 0.000476905 0
0.00101803 0.00048465 0
0.00103685 0.000389398 0
0.0010245 0.00038825 0
0.00103525 0.00037625 0
0.00101092 0.000399779 0
0.00101267 0.000382619 0
0.00101382 0.00042025 0
0.00103187 0.000405286 0
0.00103359 0.000424605 0
0.000987383 0.00045447 0
0.000999411 0.000435161 0
0.0009744 0.000433145 0
0.0010045 0.0003725 0
0.00101475 0.00037375 0
0.000970845 0.000465215 0
0.000952614 0.000467664 0
0.000961768 0.000449944 0
0.00099729 0.000387704 0
0.000978901 0.00039598 0
0.000985823 0.000381492 0
0.000962289 0.000393709 0
0.000974259 0.000381279 0
0.00097375 0.00036875 0
0.000963045 0.000376631 0
0.000958 0.0005 0
0.000932 0.0005 0
0.000947542 0.00048457 0
0.000949675 0.000385245 0
0.000936214 0.000389472 0
0.000940006 0.000374906 0
0.000966411 0.000412573 0
0.000944241 0.000407079 0
0.000903569 0.000424993 0
0.000921701 0.000402409 0
0.000927439 0.000427744 0
0.000889795 0.000409067 0
0.000903071 0.00040248 0
0.000925447 0.000377721 0
0.00093275 0.00036375 0
0.000907708 0.000387127 0
0.000911303 0.000370839 0
0.000911933 0.000455145 0
0.000930678 0.000473279 0
0.000911886 0.000482603 0
0.000887724 0.000388076 0
0.000899595 0.000375116 0
0.000902 0.00036 0
0.000889241 0.00036954 0
0.000836977 0.000459472 0
0.000836223 0.000483578 0
0.000820467 0.000474142 0
0.000871227 0.000403557 0
0.000861 0.000355 0
0.000868368 0.000365714 0
0.00085484 0.00036588 0
0.000847735 0.000402845 0
0.000823121 0.000421599 0
0.000826582 0.000398147 0
0.000846943 0.00042454 0
0.000838832 0.000378613 0
0.000835569 0.000363808 0
0.000844098 0.00036291 0
0.00085075 0.00035375 0
0.000851465 0.000477164 0
0.00083025 0.00035125 0
0.000822824 0.000368659 0
0.00081446 0.000357362 0
0.000805884 0.000371794 0
0.000753471 0.000477524 0
0.000738313 0.000473927 0
0.000739102 0.000461526 0
0.00079826 0.000358588 0
0.000788607 0.000376287 0
0.000781733 0.000357987 0
0.000816783 0.000384471 0
0.000807975 0.000404095 0
0.000752138 0.000404775 0
0.000767682 0.000417043 0
0.000749617 0.000421803 0
0.000752903 0.000384008 0
0.000738293 0.000393136 0
0.000772614 0.000394048 0
0.00076863 0.000371878 0
0.000765995 0.000354121 0
0.000779 0.000345 0
0.00071811 0.000453059 0
0.000738069 0.000437967 0
0.000752085 0.000365972 0
0.000728123 0.000374583 0
0.000741845 0.000354664 0
[...]
CELL_DATA 58684
VECTORS velocity DOUBLE
65.2921 -0.11005 0
74.5032 -3.77199e-05 0
75.3977 -0.000748646 0
74.5248 -0.00373862 0
75.2564 -0.00892974 0
74.5345 -0.00691182 0
75.1264 -0.0599799 0
67.7865 -0.00259514 0
67.7881 -0.0192057 0
67.8459 -0.00290801 0
67.9153 -0.00445382 0
67.9476 -0.329036 0
67.8026 -0.0969436 0
68.0073 -0.100925 0
67.792 -0.158913 0
68.1425 -0.13394 0
67.7908 -0.0859984 0
68.3577 -0.115398 0
67.8276 -0.277836 0
68.6991 -0.079343 0
67.8078 -0.0850835 0
68.3496 -0.27594 0
72.2926 -1.2082 0
67.7888 0.00902381 0
67.7857 0.0432965 0
67.7887 0.0203322 0
67.8164 0.114284 0
67.8035 0.0181645 0
67.8134 0.149076 0
67.8764 0.038828 0
67.82 0.116238 0
67.841 0.0278629 0
67.7734 0.111953 0
68.0919 0.101807 0
67.9129 0.710133 0
67.9911 0.0494282 0
67.8373 0.144529 0
68.1328 0.220742 0
74.5445 -0.00293851 0
74.5541 -0.00135363 0
74.5649 -0.00983872 0
74.5651 -0.00667494 0
74.5673 -0.00264914 0
74.5658 -0.00606195 0
74.5607 -0.00577808 0
74.557 -0.00392983 0
74.5449 -0.00465946 0
74.5271 0.00192771 0
74.5208 0.00212072 0
74.497 -0.00606767 0
74.4573 0.0150949 0
74.4433 0.0212818 0
74.4301 0.00908125 0
74.3907 -0.00705675 0
74.3369 0.0425542 0
74.3283 0.0287814 0
74.2748 -0.00539637 0
74.181 0.076246 0
74.1654 0.0733005 0
74.1395 0.0385949 0
74.0569 -0.00754386 0
74.0127 0.112464 0
73.9279 0.0714939 0
73.8061 -0.00371889 0
73.7688 0.138459 0
73.7488 0.130024 0
73.666 0.0935946 0
73.5732 -0.00475824 0
73.5398 0.159987 0
73.4525 0.101264 0
73.3422 -0.00220587 0
73.3046 0.17868 0
73.2335 0.122807 0
73.1188 0.229801 0
73.0366 -0.00779061 0
72.9764 0.147565 0
72.9126 0.10252 0
72.7754 -0.00534233 0
72.7329 0.180223 0
72.5019 0.103195 0
72.6876 0.133818 0
72.4962 -0.00834706 0
72.4098 0.0787166 0
72.4558 0.129903 0
72.2143 0.0534847 0
72.2584 0.0551424 0
72.2778 0.101185 0
72.192 0.100805 0
72.0357 0.00311477 0
71.989 0.0044838 0
72.0962 0.0345694 0
72.024 0.0178259 0
71.9304 -0.0345432 0
71.9581 -0.00288234 0
71.926 -0.0447206 0
71.8573 -0.0967747 0
71.8696 -0.0693297 0
71.8787 -0.107017 0
71.8721 -0.148988 0
71.8356 -0.126975 0
71.8585 -0.216365 0
71.8413 -0.158608 0
71.8517 -0.0692056 0
71.8568 -0.236843 0
71.8954 -0.238876 0
71.8718 -0.268434 0
71.8687 -0.0670128 0
71.902 -0.287312 0
71.9456 -0.338731 0
71.9252 -0.187298 0
71.9413 -0.199411 0
71.9092 -0.281049 0
71.9983 -0.357514 0
71.9494 -0.133721 0
72.0729 -0.299712 0
72.0096 -0.187434 0
72.0059 -0.0124311 0
72.0885 -0.321568 0
72.1299 -0.349152 0
72.198 -0.25438 0
72.1311 -0.125962 0
72.0434 -0.140144 0
72.2069 -0.247814 0
72.1208 -0.0762835 0
72.2341 -0.185074 0
72.0694 -0.054862 0
72.2512 -0.142399 0
72.0174 -0.0180917 0
72.2342 -0.130122 0
72.2152 -0.0346561 0
71.9371 0.0525464 0
72.1277 0.0472773 0
71.973 0.0302544 0
72.061 0.158367 0
71.9267 0.0152437 0
72.161 0.114901 0
71.9648 0.293054 0
71.741 0.216629 0
71.6662 0.317879 0
71.8613 0.234819 0
71.8781 0.284275 0
71.6525 0.151243 0
71.7103 0.401326 0
71.6376 0.455726 0
71.3362 0.281193 0
71.5402 0.226212 0
71.6235 0.381003 0
71.5252 0.479643 0
71.3701 0.0774474 0
71.2445 0.480272 0
71.2361 0.508892 0
71.024 0.183948 0
71.1823 0.250532 0
71.1493 0.371594 0
71.082 0.448785 0
71.0805 0.0538712 0
71.0535 0.502129 0
70.9361 0.410984 0
70.8982 0.155735 0
70.8675 0.241296 0
70.8556 0.0406135 0
70.8405 0.271444 0
70.8635 -0.00891749 0
70.8155 0.205332 0
70.7295 -0.00134553 0
70.875 -0.0458373 0
70.7746 -0.176532 0
70.8156 -0.243377 0
70.873 -0.177916 0
71.0758 -0.203424 0
70.7475 -0.179495 0
70.7779 -0.288042 0
71.0337 -0.093723 0
70.8973 -0.50492 0
71.0259 -0.597289 0
70.8958 -0.399035 0
71.2152 -0.267471 0
71.3029 -0.382689 0
71.0713 -0.729258 0
71.4059 -0.256821 0
71.2641 -0.745199 0
71.346 -0.771696 0
71.396 -0.930318 0
71.4997 -0.00651465 0
71.7195 -0.892993 0
71.4006 -0.676729 0
71.7893 -0.533486 0
71.9534 -0.572741 0
71.8539 -0.992144 0
72.0448 -0.952079 0
71.7544 -0.180206 0
72.1356 -0.823468 0
72.1973 -0.96713 0
72.2332 -0.915611 0
72.2364 -0.0887225 0
72.1749 -0.620713 0
72.6637 -0.794447 0
72.5123 -0.408028 0
72.4209 -0.350268 0
72.671 -0.630003 0
72.744 -0.730399 0
72.2286 -0.102538 0
72.8546 -0.516378 0
72.9029 -0.431765 0
72.4189 0.000108393 0
72.8854 -0.172945 0
72.6846 -0.330651 0
72.6359 -0.00119214 0
72.702 0.115442 0
72.8045 -0.0789871 0
73.0253 -0.0258644 0
72.4705 0.0369723 0
72.8994 0.182197 0
72.9613 0.208416 0
72.794 0.39626 0
72.3596 0.00133277 0
72.6695 0.282057 0
72.7753 0.487846 0
72.422 0.0478773 0
72.7177 0.556012 0
72.4447 0.150142 0
72.6508 0.607617 0
72.3404 0.00503484 0
72.4137 0.36005 0
72.489 0.553365 0
72.3489 0.0112523 0
72.2616 0.522832 0
72.1233 0.233543 0
72.3464 0.230431 0
72.3143 -0.0226765 0
72.0338 0.29433 0
72.3535 -0.149915 0
72.5772 -0.0466912 0
72.2136 0.076525 0
71.9381 0.057545 0
71.8981 0.0781184 0
72.4957 -0.271212 0
72.0761 -0.355644 0
71.9797 -0.561579 0
72.7088 -0.111041 0
72.1692 -0.899909 0
71.9638 -0.785874 0
72.3803 -0.634695 0
72.7509 -0.463852 0
72.7634 -0.626092 0
72.1356 -1.18617 0
73.1969 -0.00724038 0
72.2651 -1.42518 0
72.4332 -1.56645 0
72.373 -1.60549 0
73.4538 -0.552797 0
72.9451 -1.60356 0
73.1289 -1.86383 0
73.6698 -0.00801254 0
73.2562 -2.28609 0
73.8516 -2.2268 0
73.4624 -1.3671 0
73.6523 -0.688555 0
73.6473 -2.43013 0
73.8224 -0.865069 0
74.1803 -0.107678 0
73.8305 -1.82043 0
74.1745 -2.44939 0
74.5611 -2.38256 0
74.3265 -0.411218 0
74.8627 -1.88431 0
74.7437 -2.28739 0
74.4757 -0.176867 0
75.0285 -2.39405 0
75.4292 -2.1965 0
75.2622 -1.21586 0
74.6324 0.000150706 0
75.77 -1.86838 0
75.2444 -0.496948 0
75.5615 -0.452993 0
75.7207 -1.60303 0
75.5341 -1.1183 0
76.3663 -1.27451 0
74.8948 -0.0382768 0
76.2773 -1.46277 0
76.0546 -0.624188 0
76.5738 -0.617857 0
74.7363 -0.0128556 0
76.648 0.132273 0
76.4851 0.340639 0
74.293 0.0899704 0
76.7976 -0.22479 0
76.8511 0.253532 0
75.1829 0.644447 0
74.8225 0.247958 0
76.003 0.193424 0
76.8089 0.723604 0
74.4665 0.169876 0
76.5046 1.3789 0
76.7351 0.872141 0
76.7348 1.04478 0
74.0951 0.795988 0
75.7613 1.53198 0
76.4958 1.6427 0
74.0677 0.134188 0
76.3562 1.98964 0
76.3209 1.95499 0
75.6777 2.979 0
72.8021 0.214511 0
76.2998 2.73261 0
75.0781 1.98425 0
73.8081 0.892984 0
73.6942 1.75956 0
76.1753 3.00455 0
75.6441 3.42153 0
73.1493 0.359785 0
75.5255 3.8685 0
75.0582 -0.0169496 0
74.9936 0.000106167 0
74.8287 -0.0732734 0
74.8117 -0.0596932 0
74.7146 0.000847178 0
74.5309 -0.0787306 0
74.5121 -0.0927853 0
74.4759 -0.0543625 0
74.3818 0.00168884 0
74.2615 -0.100367 0
74.2503 -0.0653863 0
74.1753 0.0029317 0
74.0392 -0.0928741 0
74.0279 -0.0873649 0
74.0027 -0.044896 0
73.9314 0.0053763 0
73.8461 -0.084669 0
73.8356 -0.0520251 0
73.7704 0.00602902 0
73.6716 -0.0780254 0
73.6603 -0.0586418 0
73.5741 -0.0547721 0
73.635 -0.017464 0
73.5259 -0.0161575 0
73.437 -0.00704987 0
73.4939 0.00372475 0
73.4117 0.0264727 0
73.3804 0.0274922 0
73.3633 0.0342263 0
73.405 0.00584416 0
73.3211 0.0453334 0
73.3136 0.0614226 0
73.3261 0.0192464 0
73.2724 0.083259 0
73.2564 0.0903456 0
73.2446 0.0687144 0
73.2671 0.0387374 0
73.2216 0.0736648 0
73.1944 0.0766195 0
73.2145 0.0453726 0
73.1609 0.11078 0
73.1239 0.0442551 0
73.1291 0.0741255 0
73.1549 0.0529542 0
73.0989 0.079734 0
73.0673 0.0661819 0
72.9891 0.0208897 0
73.0499 0.0507241 0
73.0001 0.047389 0
72.9744 0.0317537 0
72.8418 0.00179517 0
72.8919 -0.00219938 0
72.8458 -0.0122746 0
72.7753 -0.060833 0
72.6769 -0.0360807 0
72.7045 -0.0534174 0
72.6316 -0.121744 0
72.4589 -0.126472 0
72.6053 -0.113698 0
72.4672 -0.191349 0
72.4482 -0.199358 0
72.3232 -0.139395 0
72.2139 -0.0933052 0
72.1646 -0.228286 0
72.5321 -0.0630579 0
72.0925 -0.269713 0
71.8639 -0.320608 0
71.9534 -0.272789 0
72.0185 -0.160349 0
71.7696 -0.331336 0
71.7112 -0.278135 0
71.4972 -0.114999 0
71.7935 -0.2772 0
71.5497 -0.267757 0
71.452 -0.271492 0
71.658 -0.0852379 0
71.4797 -0.198444 0
71.2612 -0.249032 0
71.4038 -0.154099 0
71.2003 -0.197094 0
71.0818 -0.131794 0
71.1744 -0.12775 0
71.0767 -0.0266219 0
71.0473 -0.0738756 0
70.9805 -0.0972431 0
71.0504 -0.0135744 0
70.9545 -0.00148819 0
71.0428 -0.0183629 0
70.9054 0.0645299 0
71.0044 0.00143182 0
70.9262 0.114708 0
70.9582 0.315362 0
71.0034 0.0695774 0
70.9775 0.156362 0
71.0156 0.382885 0
71.0106 0.296278 0
70.9879 0.0923814 0
71.039 0.414838 0
71.0868 0.499225 0
71.1216 0.116484 0
71.1974 0.224533 0
71.193 0.469961 0
71.2445 0.639347 0
71.145 0.303146 0
71.3468 0.622389 0
71.4239 0.691773 0
71.5265 0.201929 0
71.4104 0.389002 0
71.6101 0.753887 0
71.6154 0.619673 0
71.3557 0.190989 0
71.6755 0.675605 0
71.8534 0.661632 0
71.7451 0.218369 0
71.7592 0.580083 0
72.0622 0.716663 0
72.0158 0.47162 0
71.6145 0.189461 0
72.1404 0.564093 0
72.2751 0.48627 0
71.8702 0.166158 0
72.2172 0.273837 0
71.9709 0.115501 0
72.2531 0.183653 0
71.9422 0.177882 0
72.3724 0.30311 0
72.4085 0.0324639 0
71.98 0.0152419 0
72.3604 0.0341093 0
72.3514 -0.189303 0
71.9351 -0.0787274 0
72.2791 0.0756023 0
72.2711 -0.224318 0
72.3179 -0.335063 0
71.9188 -0.0313574 0
72.2572 -0.363016 0
72.1066 -0.624813 0
72.0671 -0.527408 0
71.7854 -0.140047 0
71.8793 -0.583885 0
71.8671 -0.16398 0
72.173 -0.340278 0
71.9531 -0.652631 0
71.737 -0.760861 0
71.7258 -0.781948 0
71.7927 -0.00750404 0
71.4904 -0.840768 0
71.4656 -0.76549 0
71.3995 -0.506507 0
71.3943 -0.198213 0
71.2972 -0.134762 0
71.3651 -0.645816 0
71.5434 -0.172572 0
71.148 -0.506949 0
71.1844 -0.494024 0
71.2113 -0.308734 0
71.318 -0.0616971 0
71.0667 -0.182411 0
70.9804 -0.0841978 0
71.2618 0.0416291 0
71.232 -0.0498586 0
71.1085 0.039457 0
70.9829 0.286639 0
71.2646 -0.0730543 0
71.0534 0.354108 0
71.0566 0.505364 0
71.3714 0.101788 0
71.2823 0.904945 0
71.3031 0.898694 0
71.5512 0.917609 0
71.5204 0.324726 0
71.4121 0.315381 0
71.3095 0.95349 0
71.3931 0.155223 0
71.6053 1.32792 0
71.695 1.29491 0
71.7934 1.2571 0
71.6789 0.152581 0
72.1133 1.55582 0
72.1408 1.63432 0
71.9727 0.776759 0
72.4799 1.18027 0
72.1181 0.629635 0
72.309 1.54097 0
71.9644 0.36055 0
72.7108 1.81512 0
72.7629 1.71306 0
72.0519 0.309426 0
72.9061 1.46119 0
73.3904 1.59219 0
73.1399 1.63271 0
72.8558 0.312828 0
73.8678 1.45539 0
73.9226 1.52951 0
72.7761 1.06306 0
73.4482 0.983173 0
72.9065 0.571777 0
74.1638 1.34443 0
73.0797 0.144751 0
74.2087 1.08963 0
74.1232 0.928466 0
72.8423 0.126839 0
73.8939 0.82031 0
74.3775 0.610543 0
74.3871 0.49309 0
73.5154 0.204257 0
74.3749 0.348382 0
74.3272 0.257023 0
73.7292 0.598855 0
74.1185 0.198903 0
73.6125 0.155926 0
74.2622 0.0920476 0
73.5848 0.0610757 0
74.2095 0.00508811 0
74.1519 -0.0241065 0
73.4508 0.0507139 0
74.1162 0.0439463 0
73.9924 -0.0611542 0
73.906 -0.0211279 0
73.7591 0.0642322 0
73.9763 -0.00301818 0
73.8834 0.070581 0
74.0807 0.0872349 0
74.0498 0.179619 0
73.7892 0.0471555 0
73.9685 0.0624541 0
73.8124 0.0246826 0
73.8802 0.233792 0
73.8788 0.336427 0
73.7338 0.020497 0
74.0937 0.381884 0
74 0.55989 0
74.1444 0.693571 0
74.0017 0.0340049 0
74.3094 0.859775 0
74.3813 0.782351 0
74.1512 0.0575296 0
74.5172 0.971512 0
74.6719 0.392804 0
74.0801 0.112029 0
73.9717 0.0718326 0
74.8291 1.07237 0
74.9145 0.689344 0
75.3032 0.949868 0
73.9382 -0.00104124 0
75.2577 0.412093 0
75.7057 0.649697 0
74.0654 0.000138776 0
75.0421 0.341491 0
75.9993 0.305992 0
75.2302 -0.112769 0
74.2376 -0.0683501 0
76.0567 0.0191715 0
76.2325 -0.249429 0
74.7427 0.10611 0
75.3269 -0.881616 0
74.212 -1.12022 0
75.973 -0.543824 0
73.9209 -0.125211 0
76.3981 -1.03926 0
75.067 4.27664 0
75.4581 3.80649 0
72.128 1.15902 0
75.0329 4.25181 0
73.7004 4.03983 0
74.5354 4.69228 0
72.477 0.451749 0
74.0193 4.85721 0
73.3694 4.86833 0
71.6949 0.592673 0
73.3534 5.13637 0
76.4225 -1.44369 0
73.9798 -0.0645858 0
76.4052 -1.71861 0
75.7111 -2.23263 0
75.2067 -1.87429 0
73.7444 -0.11411 0
75.9881 -2.61101 0
72.6597 4.79683 0
75.7087 -3.5504 0
73.8192 -0.622293 0
75.5684 -3.4754 0
74.9527 -4.20875 0
71.0102 1.43284 0
74.7775 -4.23359 0
75.1367 -1.88186 0
75.1898 -3.7143 0
73.8088 -2.80765 0
72.7778 -0.440625 0
74.558 -3.89534 0
74.132 -4.29795 0
72.2742 5.04611 0
74.1489 -4.28156 0
73.2042 -0.218252 0
73.5239 -4.65693 0
73.1622 -5.12141 0
72.4483 -0.298174 0
72.5126 -5.35991 0
72.7107 -3.80581 0
71.2368 -0.400294 0
71.9375 -5.51182 0
71.6982 -3.04024 0
72.5898 -2.16713 0
72.2448 -4.67986 0
71.5069 -5.04514 0
72.7396 2.63947 0
70.4604 0.318316 0
72.2979 1.78617 0
71.5859 -0.0366259 0
71.2555 -5.4737 0
72.1105 4.78922 0
70.3314 0.228008 0
71.6162 4.08077 0
70.6939 -5.50001 0
71.3352 -1.05962 0
70.1087 -4.05289 0
71.6493 5.4436 0
69.6507 1.22782 0
71.6284 5.37264 0
70.2334 4.5749 0
69.8089 0.246429 0
70.7301 4.78816 0
70.4478 -4.12745 0
71.0535 -0.313758 0
70.1212 -5.65666 0
70.1683 -5.49963 0
70.9251 5.14172 0
69.7129 4.96516 0
69.4029 0.0184482 0
70.3767 5.1145 0
69.0889 3.09792 0
69.4157 1.39376 0
69.4849 -5.66533 0
69.7858 -0.734905 0
69.7263 -5.56529 0
68.8563 5.21124 0
69.0588 -5.27206 0
69.2187 -0.734456 0
69.0969 -2.36804 0
68.3063 -5.15359 0
70.0642 -2.71898 0
68.1573 -4.96363 0
68.9006 -0.205348 0
67.5298 -4.83394 0
68.6545 1.72452 0
68.9956 0.267118 0
68.5932 4.37498 0
68.6597 0.0631796 0
68.4014 5.14022 0
68.3037 4.83248 0
68.4662 0.111936 0
67.7996 4.1957 0
68.3475 0.081071 0
68.3943 -4.46111 0
68.9084 -0.395224 0
68.9807 3.72372 0
67.8495 0.526006 0
67.6053 3.93605 0
67.4583 -4.85009 0
69.0028 -0.170705 0
66.3017 -4.2009 0
67.8305 -0.376602 0
66.7992 -4.15851 0
68.2418 1.51465 0
67.791 0.0883426 0
68.8526 -3.6369 0
67.7872 -0.0863444 0
66.3772 -3.97555 0
67.169 3.52907 0
67.3568 -3.15016 0
67.7986 -0.195844 0
66.5762 -3.45558 0
67.8417 1.84897 0
66.4012 1.02455 0
66.8326 3.01159 0
67.684 -0.84061 0
66.5078 -3.78584 0
67.7729 0.307474 0
66.741 4.13844 0
67.7352 -1.80711 0
67.7893 -0.061399 0
66.269 -3.48592 0
66.6503 3.71739 0
67.8097 0.500652 0
66.5653 2.8543 0
66.4061 2.79772 0
67.7866 0.283384 0
65.8947 2.46173 0
65.688 -3.14819 0
67.7815 -0.247474 0
65.4328 -3.16662 0
67.0197 -1.62433 0
67.7988 -0.156174 0
65.0969 -2.30051 0
65.8579 3.16299 0
67.7602 0.417247 0
66.7677 1.90597 0
65.4531 -2.07531 0
67.7371 -0.285086 0
64.973 -1.97282 0
65.0599 2.21798 0
67.7618 0.174121 0
65.3283 2.09395 0
65.5591 1.63401 0
67.7949 0.0225853 0
65.0038 1.76667 0
65.8318 -1.35901 0
67.7262 -0.488632 0
65.3008 -1.27271 0
64.4786 -0.944571 0
67.3312 -0.851339 0
64.6402 -0.85218 0
67.1034 0.416375 0
67.777 0.0382722 0
66.5057 1.32245 0
64.9385 1.32083 0
67.7031 -0.0177955 0
64.5184 0.740412 0
67.5185 -0.316718 0
67.7827 -0.0857667 0
64.5189 -0.506072 0
64.855 -0.385182 0
67.7842 -0.0670543 0
66.4441 -0.113738 0
65.1118 0.021491 0
67.7842 -0.0540316 0
67.4716 -4.05855 0
67.8292 -0.381481 0
67.783 0.0930758 0
67.9088 4.32962 0
68.6936 -5.29013 0
70.378 -0.62141 0
69.288 0.592678 0
70.1825 5.38581 0
67.766 0.201584 0
65.518 3.01274 0
65.1932 -2.29216 0
67.7392 -0.166101 0
67.7817 -0.489129 0
67.6595 -2.69401 0
67.8587 0.555933 0
67.8486 0.157232 0
67.7882 -0.027315 0
64.8862 1.10465 0
68.6236 0.275172 0
68.1146 0.911759 0
68.3234 -0.996657 0
69.2576 -0.48092 0
72.4765 -0.677647 0
72.8375 -5.18532 0
73.5822 4.87048 0
72.247 0.265598 0
67.7295 0.937422 0
68.8433 4.99874 0
68.3791 -4.90426 0
68.6804 -1.66701 0
67.1845 -1.24377 0
65.6675 -0.487335 0
66.7162 3.64616 0
67.9196 1.08797 0
67.8361 -1.35716 0
65.7532 -3.50553 0
76.285 -2.18268 0
73.6584 -0.286107 0
73.7629 0.438254 0
76.3055 2.44686 0
67.8235 -0.680966 0
67.7952 -0.0352159 0
67.7909 0.12073 0
68.4347 0.443727 0
70.8633 0.427214 0
70.7094 2.49817 0
69.8866 -1.3172 0
71.6892 -1.02844 0
70.0609 3.00694 0
71.9322 5.10745 0
71.6371 -5.5178 0
70.6882 -1.20572 0
72.9389 0.956839 0
73.7498 3.03727 0
72.8236 -1.50294 0
73.1916 -0.0152384 0
74.1103 -0.00146925 0
75.4281 0.802236 0
76.6084 -0.630433 0
74.5426 0.011177 0
73.803 -2.06662e-05 0
73.9084 0.423693 0
75.3987 -2.00994 0
74.5375 -0.183103 0
68.5365 -1.05851 0
68.1206 -0.424223 0
68.0961 0.730039 0
68.5711 0.562055 0
68.0101 0.739593 0
67.8084 0.187249 0
67.7848 -0.0834004 0
67.9538 -0.880936 0
74.5165 0.496581 0
75.3833 0.906948 0
74.2047 -0.320112 0
74.0028 -0.0329374 0
66.513 -0.989815 0
67.8104 -0.148212 0
67.5328 -0.452375 0
67.8028 -0.322881 0
67.7951 0.149347 0
67.8112 0.631599 0
74.1099 -0.0517457 0
73.6908 0.0819725 0
73.8788 -0.00881003 0
73.165 -2.05546 0
70.1583 -0.0206729 0
69.7664 -1.91143 0
70.1848 1.0932 0
69.4083 0.269407 0
67.7143 2.43717 0
67.2815 4.60074 0
67.4254 -4.45688 0
68.133 -2.37941 0
68.3776 -1.54423 0
67.5937 -1.72399 0
67.752 2.83164 0
67.9889 1.288 0
74.6465 -0.263201 0
74.7023 -0.0702798 0
73.9742 0.0137975 0
74.1352 0.304664 0
69.1357 -3.6852 0
69.8043 -3.49316 0
69.3228 2.82812 0
69.6842 5.3719 0
68.65 -2.81623 0
69.3435 -1.59808 0
69.0541 1.88086 0
68.6028 0.915857 0
74.3391 0.799781 0
73.3231 0.120268 0
72.9835 -0.0114359 0
71.9475 -0.535259 0
67.4545 0.486751 0
67.7916 0.0158479 0
73.929 -0.247933 0
74.5134 -1.24751 0
73.9611 0.103097 0
73.6855 0.016783 0
68.3814 -0.700715 0
68.0922 -1.00255 0
68.5521 1.03658 0
68.0286 0.476791 0
67.8141 -0.120617 0
67.9469 -0.567196 0
67.8553 0.251698 0
67.7945 0.099318 0
65.186 0.85545 0
67.2054 0.771152 0
73.3063 -1.70738 0
75.6567 -3.18808 0
75.8552 3.31824 0
73.0789 1.34431 0
67.1627 -1.84583 0
65.6973 -2.30623 0
72.4776 0.250436 0
72.9098 1.63667 0
71.4568 0.0870243 0
72.0235 1.648 0
72.1804 0.403314 0
72.3456 -0.0145452 0
72.9108 0.329907 0
72.3737 0.000229701 0
73.1188 -0.392566 0
72.8102 -0.979585 0
73.686 0.220814 0
73.405 0.00290707 0
67.8061 0.125834 0
67.6881 0.318759 0
66.861 0.0410037 0
65.3685 0.232844 0
67.7747 -0.243178 0
67.7751 -0.141518 0
67.488 0.0311941 0
67.469 -0.719929 0
76.1495 0.0850964 0
74.3109 -0.579667 0
75.4541 1.12462 0
76.7564 0.419538 0
67.8505 -0.0533024 0
67.9261 -0.302199 0
67.8051 0.0419852 0
68.0632 0.168542 0
72.4618 -0.116753 0
72.2847 -0.165667 0
73.2257 0.400931 0
72.6767 0.165997 0
71.2553 0.0470265 0
71.0795 0.339576 0
72.9386 -0.473066 0
72.3517 -0.0835481 0
68.1694 -0.677132 0
68.7917 -1.54778 0
68.3445 0.949351 0
68.1293 0.747561 0
68.5546 1.72541 0
67.6 1.02966 0
67.9619 -1.4496 0
68.4048 -2.03591 0
74.3169 0.100286 0
74.1131 0.517727 0
75.877 -1.63103 0
75.6234 -0.232419 0
67.6969 -0.951407 0
67.764 -1.09347 0
67.7734 0.664381 0
67.4471 0.677942 0
71.0266 -0.326002 0
71.3448 -0.171816 0
72.0061 -0.166685 0
72.4856 -0.849434 0
72.1911 2.58856 0
73.6012 4.32416 0
73.5311 -5.00624 0
72.8664 -1.87588 0
66.0887 -2.65833 0
67.6178 -2.59983 0
72.057 -1.815 0
72.2888 -0.627427 0
71.2959 0.295467 0
73.2374 1.84869 0
65.725 2.85341 0
67.0176 1.55732 0
72.3544 0.00817459 0
72.4409 0.197843 0
72.2581 0.612353 0
72.17 0.160003 0
73.768 -0.13469 0
73.8482 -0.629845 0
74.4879 1.13299 0
73.8404 0.162534 0
70.9161 0.867988 0
69.8414 0.216764 0
70.6482 -0.218189 0
71.0964 -1.92277 0
73.9588 0.104325 0
74.0649 -0.00540918 0
74.208 -2.28977 0
74.828 -0.829838 0
70.5605 -2.46578 0
71.1146 -1.12131 0
70.5222 1.64259 0
72.2093 3.68305 0
71.7142 -0.631847 0
71.6238 -0.0969238 0
71.7729 -0.192721 0
71.459 -0.88621 0
72.4207 -0.059461 0
72.3753 0.000642426 0
71.6156 0.128979 0
71.1314 0.305049 0
68.9749 0.297143 0
68.842 0.773733 0
69.1032 -0.804477 0
69.6101 -0.233442 0
69.9198 1.71303 0
68.9629 1.16459 0
68.6786 -2.03089 0
68.165 -2.11761 0
74.1516 -0.0432477 0
74.0789 -0.0293889 0
74.7514 0.102065 0
75.2225 0.00515809 0
68.9288 2.32587 0
69.2422 1.5542 0
68.6501 -0.596218 0
68.5439 -0.221077 0
68.4407 0.15755 0
68.8342 0.523649 0
66.9497 -0.884007 0
67.5921 -1.09777 0
76.1038 -0.843769 0
74.5203 -0.751417 0
74.6442 2.18006 0
76.4808 1.942 0
67.8057 -0.732811 0
67.8124 -0.105012 0
67.7607 0.153067 0
67.8689 0.587031 0
68.0255 0.0603654 0
68.0341 0.398786 0
68.1037 -0.260801 0
68.2005 -0.0131237 0
66.235 -0.524593 0
64.5046 -0.236856 0
72.122 1.97423 0
74.564 1.72972 0
73.6182 -1.21776 0
74.2888 -2.57475 0
67.61 1.16327 0
67.3234 0.540914 0
67.792 -0.0210546 0
67.6864 -0.113212 0
69.4178 4.25637 0
68.0077 2.45869 0
69.2784 -2.94537 0
68.7324 -5.48048 0
67.4784 0.399367 0
67.7583 0.285211 0
73.7755 0.278162 0
74.362 0.400479 0
72.3142 -1.1398 0
73.08 -0.316976 0
72.0208 -0.17606 0
72.2742 -0.0513931 0
71.2989 0.0132237 0
71.197 -0.411507 0
76.6041 -0.683618 0
75.9176 0.432937 0
74.5512 0.288434 0
74.9817 0.91403 0
67.5738 -0.0550193 0