# vtk DataFile Version 3.0
Unstructured Grid for Triangles
ASCII
DATASET UNSTRUCTURED_GRID
POINTS 29612 DOUBLE
-0.000272397 1.23686e-05 0
-0.000295789 9.5838e-06 0
-0.000277865 -3.1235e-06 0
0.002024 0.0005 0
0.00203975 0.00049875 0
0.00205 0.0005 0
0.00203975 -0.00049875 0
0.002024 -0.0005 0
0.00205 -0.0005 0
0.0020295 0.0004975 0
0.0020295 -0.0004975 0
0.00201925 0.00049625 0
0.00201925 -0.00049625 0
-0.000529747 -0.000479887 0
-0.00055 -0.0005 0
-0.000524 -0.0005 0
-0.000505983 -0.000484325 0
-0.000498 -0.0005 0
-0.000472 -0.0005 0
-0.000483864 -0.000487761 0
-0.000446 -0.0005 0
-0.000459 -0.000484239 0
-0.000429453 -0.000424878 0
-0.000447486 -0.000420717 0
-0.000441829 -0.000436609 0
-0.000512578 -0.000462101 0
-0.000493078 -0.000453594 0
-0.00050706 -0.000439006 0
-0.000419243 -0.000477545 0
-0.000440307 -0.000471837 0
-0.00043691 -0.000486724 0
-0.000516129 -0.000420948 0
-0.000495355 -0.000415432 0
-0.000511646 -0.00040128 0
-0.000394697 -0.000481197 0
-0.000406302 -0.000455143 0
-0.000537257 -0.000388197 0
-0.000531099 -0.000407297 0
-0.000523982 -0.000388328 0
-0.000370063 -0.000472956 0
-0.000368 -0.0005 0
-0.00035308 -0.000485302 0
-0.0005072 -0.00037867 0
-0.000485506 -0.000383975 0
-0.000490949 -0.000359622 0
-0.000337127 -0.000484331 0
-0.000316 -0.0005 0
-0.000326495 -0.00047415 0
-0.00055 -0.00035 0
-0.000531201 -0.000370361 0
-0.000528367 -0.000346817 0
-0.000363898 -0.000448809 0
-0.000383315 -0.000460336 0
-3.26269e-05 -0.000415503 0
-5.99662e-05 -0.000409556 0
-5.46944e-05 -0.000429488 0
-0.000529747 0.000479887 0
-0.00055 0.0005 0
-0.00055 0.000475 0
-0.00055 0.00045 0
-0.000534834 0.000429171 0
-0.000526943 0.000442611 0
-0.000534026 0.000460176 0
-0.000531099 0.000407297 0
-0.000511672 0.000401178 0
-0.000516129 0.000420948 0
-0.000524 0.0005 0
-0.000505983 0.000484325 0
-0.000531201 0.000370361 0
-0.0005072 0.00037867 0
-0.000523982 0.000388328 0
-0.00048341 0.000469132 0
-0.000483679 0.000487539 0
-0.000528367 0.000346817 0
-0.00055 0.000325 0
-0.000525657 0.000328474 0
-0.000498 0.0005 0
-0.000530382 0.0003125 0
-0.000419243 0.000477545 0
-0.000440015 0.00047335 0
-0.000425917 0.000463678 0
-0.000435138 0.000262661 0
-0.000414982 0.000274462 0
-0.000435654 0.000285217 0
-0.000459 0.000484239 0
-0.000436852 0.000487027 0
-0.000446 0.0005 0
-0.000533308 0.000292503 0
-0.00055 0.000275 0
-0.000523377 0.000276953 0
-0.000425282 0.000446352 0
-0.000409368 0.000435728 0
-0.000406302 0.000455143 0
0.002009 0.000495 0
0.001998 0.0005 0
0.00199875 0.00049375 0
0.0019885 0.0004925 0
0.001972 0.0005 0
0.00197825 0.00049125 0
0.001968 0.00049 0
0.00195775 0.00048875 0
0.001946 0.0005 0
0.0019475 0.0004875 0
0.00193725 0.00048625 0
0.00192 0.0005 0
0.001927 0.000485 0
0.00191675 0.00048375 0
0.0019065 0.0004825 0
0.001894 0.0005 0
0.00189625 0.00048125 0
0.001886 0.00048 0
0.001868 0.0005 0
0.00187575 0.00047875 0
0.0018655 0.0004775 0
0.00185515 0.00048575 0
0.001842 0.0005 0
0.001845 0.000475 0
0.00185525 0.00047625 0
0.00182564 0.0004829 0
0.001816 0.0005 0
0.0018245 0.0004725 0
0.00183475 0.00047375 0
0.00181425 0.00047125 0
0.00180295 0.000482657 0
0.00179 0.0005 0
0.00179375 0.00046875 0
0.001804 0.00047 0
0.00178168 0.000480619 0
0.001764 0.0005 0
0.00177325 0.00046625 0
0.0017835 0.0004675 0
0.00176428 0.000476631 0
0.001763 0.000465 0
0.001738 0.0005 0
0.001751 0.000484164 0
0.00175275 0.00046375 0
0.00174025 0.000475632 0
0.001712 0.0005 0
0.00172615 0.000478449 0
0.001722 0.00046 0
0.00173225 0.00046125 0
0.0017015 0.0004575 0
0.00171243 0.00047381 0
0.00169554 0.000479999 0
0.001686 0.0005 0
0.00167507 0.000479751 0
0.00168498 0.000464861 0
0.00166 0.0005 0
0.0016558 0.000471459 0
0.00167135 0.000462887 0
0.001681 0.000455 0
0.0016605 0.0004525 0
0.00167075 0.00045375 0
0.00164059 0.000461599 0
0.0016394 0.000479551 0
0.00162881 0.00046615 0
0.00162975 0.00044875 0
0.00165025 0.00045125 0
0.00164 0.00045 0
0.00161754 0.000458641 0
0.00161722 0.000478101 0
0.00159956 0.000458294 0
0.00160925 0.00044625 0
0.0016195 0.0004475 0
0.00157667 0.000460322 0
0.00158875 0.00044375 0
0.00159194 0.000480155 0
0.001599 0.000445 0
0.0015785 0.0004425 0
0.00155808 0.000456757 0
0.00155647 0.000476701 0
0.00154059 0.000466642 0
0.00153756 0.000450083 0
0.00154839 0.000450446 0
0.00156825 0.00044125 0
0.00151954 0.000480508 0
0.00154052 0.00048477 0
0.00153 0.0005 0
0.00154775 0.00043875 0
0.00152142 0.000456625 0
0.00152821 0.000445753 0
0.0015375 0.0004375 0
0.001504 0.0005 0
0.00149644 0.000485168 0
0.00151787 0.000443178 0
0.00152725 0.00043625 0
0.00150675 0.00043375 0
0.001517 0.000435 0
0.00148119 0.000450887 0
0.00148072 0.000475756 0
0.00146584 0.000463516 0
0.00150008 0.00046396 0
0.00149351 0.00044543 0
0.0015061 0.000446252 0
0.001476 0.00043 0
0.00148625 0.00043125 0
0.00146492 0.000482975 0
0.00144888 0.000473562 0
0.00146676 0.000444259 0
0.00145255 0.000453656 0
0.00145652 0.000438669 0
0.00141401 0.000479821 0
0.001426 0.0005 0
0.0014 0.0005 0
0.00144374 0.000438862 0
0.0014555 0.0004275 0
0.001435 0.000425 0
0.00144525 0.00042625 0
0.00142746 0.000438121 0
0.00141288 0.000443191 0
0.00141707 0.000432778 0
0.0013921 0.000438992 0
0.00140355 0.00045932 0
0.00138302 0.00045922 0
0.00142912 0.000458869 0
0.00140592 0.000430037 0
0.0014145 0.0004225 0
0.00136458 0.00045869 0
0.00137106 0.00044063 0
0.001394 0.00042 0
0.00138259 0.000428915 0
0.00137484 0.000477094 0
0.00139166 0.000478902 0
0.0013586 0.000478984 0
0.00133449 0.000478649 0
0.00134717 0.000461848 0
0.00137256 0.000425134 0
0.00135323 0.000424541 0
0.00136325 0.00041625 0
0.00136122 0.00042876 0
0.00131206 0.000447284 0
0.00133168 0.000456738 0
0.00131773 0.000465243 0
0.00134756 0.000440343 0
0.00132747 0.000436463 0
0.00133483 0.000426786 0
0.00131081 0.00041867 0
0.00132382 0.000422815 0
0.00131507 0.00043122 0
0.00131059 0.000480123 0
0.0013325 0.0004125 0
0.0012915 0.0004075 0
0.0012982 0.000418199 0
0.00128915 0.000426216 0
0.00126366 0.000447574 0
0.00127331 0.000430908 0
0.00128781 0.000444872 0
0.00125336 0.000428376 0
0.00130218 0.000431077 0
0.00127894 0.000416344 0
0.00124774 0.000469608 0
0.00127668 0.000464148 0
0.00126591 0.00048331 0
0.00126722 0.000418415 0
0.00125768 0.000411931 0
0.00124326 0.000413546 0
0.0012505 0.0004025 0
0.00122408 0.000450118 0
0.00120276 0.000447432 0
0.0012139 0.000432235 0
0.00124336 0.000444132 0
0.00123056 0.000427595 0
0.00122977 0.000409049 0
0.0012185 0.000469217 0
0.00122676 0.000485947 0
0.00120525 0.000486094 0
0.00121479 0.000413153 0
0.00119547 0.000424221 0
0.00120249 0.000407448 0
0.00119925 0.00039625 0
0.00119346 0.000406114 0
0.00117479 0.000447279 0
0.00114726 0.000445259 0
0.0011571 0.000427814 0
0.00119443 0.000466611 0
0.00117447 0.000421596 0
0.00118421 0.00040752 0
0.00117409 0.000404437 0
0.00116775 0.000470073 0
0.001179 0.0004855 0
0.00115473 0.000484802 0
0.0011685 0.0003925 0
0.00117875 0.00039375 0
0.00115454 0.000400551 0
0.001148 0.00039 0
0.00115825 0.00039125 0
0.00111703 0.000423398 0
0.00113786 0.000426731 0
0.00112589 0.000443871 0
0.00113234 0.000406671 0
0.00114754 0.000413371 0
0.001106 0.000442326 0
0.00109703 0.000424261 0
0.0011275 0.0003875 0
0.00113775 0.00038875 0
0.00110211 0.000480875 0
0.00108244 0.000471951 0
0.00109312 0.000458413 0
0.00111755 0.000399116 0
0.0010944 0.000392972 0
0.00110415 0.000405876 0
0.00108839 0.000407536 0
0.00106472 0.000476905 0
0.00107274 0.000457868 0
0.00108011 0.000392415 0
0.00106885 0.000404365 0
0.00106625 0.000388708 0
0.00105286 0.000419254 0
0.00105055 0.000395469 0
0.00104215 0.000439764 0
0.00106346 0.000440629 0
0.00100945 0.000451249 0
0.00102825 0.00045614 0
0.00101189 0.000468452 0
0.00107625 0.00038125 0
0.00105575 0.00037875 0
0.001066 0.00038 0
0.00103352 0.000476905 0
0.00101803 0.00048465 0
0.00103685 0.000389398 0
0.0010245 0.00038825 0
0.00103525 0.00037625 0
0.00101092 0.000399779 0
0.00101267 0.000382619 0
0.00101382 0.00042025 0
0.00103187 0.000405286 0
0.00103359 0.000424605 0
0.000987383 0.00045447 0
0.000999411 0.000435161 0
0.0009744 0.000433145 0
0.0010045 0.0003725 0
0.00101475 0.00037375 0
0.000970845 0.000465215 0
0.000952614 0.000467664 0
0.000961768 0.000449944 0
0.00099729 0.000387704 0
0.000978901 0.00039598 0
0.000985823 0.000381492 0
0.000962289 0.000393709 0
0.000974259 0.000381279 0
0.00097375 0.00036875 0
0.000963045 0.000376631 0
0.000958 0.0005 0
0.000932 0.0005 0
0.000947542 0.00048457 0
0.000949675 0.000385245 0
0.000936214 0.000389472 0
0.000940006 0.000374906 0
0.000966411 0.000412573 0
0.000944241 0.000407079 0
0.000903569 0.000424993 0
0.000921701 0.000402409 0
0.000927439 0.000427744 0
0.000889795 0.000409067 0
0.000903071 0.00040248 0
0.000925447 0.000377721 0
0.00093275 0.00036375 0
0.000907708 0.000387127 0
0.000911303 0.000370839 0
0.000911933 0.000455145 0
0.000930678 0.000473279 0
0.000911886 0.000482603 0
0.000887724 0.000388076 0
0.000899595 0.000375116 0
0.000902 0.00036 0
0.000889241 0.00036954 0
0.000836977 0.000459472 0
0.000836223 0.000483578 0
0.000820467 0.000474142 0
0.000871227 0.000403557 0
0.000861 0.000355 0
0.000868368 0.000365714 0
0.00085484 0.00036588 0
0.000847735 0.000402845 0
0.000823121 0.000421599 0
0.000826582 0.000398147 0
0.000846943 0.00042454 0
0.000838832 0.000378613 0
0.000835569 0.000363808 0
0.000844098 0.00036291 0
0.00085075 0.00035375 0
0.000851465 0.000477164 0
0.00083025 0.00035125 0
0.000822824 0.000368659 0
0.00081446 0.000357362 0
0.000805884 0.000371794 0
0.000753471 0.000477524 0
0.000738313 0.000473927 0
0.000739102 0.000461526 0
0.00079826 0.000358588 0
0.000788607 0.000376287 0
0.000781733 0.000357987 0
0.000816783 0.000384471 0
0.000807975 0.000404095 0
0.000752138 0.000404775 0
0.000767682 0.000417043 0
0.000749617 0.000421803 0
0.000752903 0.000384008 0
0.000738293 0.000393136 0
0.000772614 0.000394048 0
0.00076863 0.000371878 0
0.000765995 0.000354121 0
0.000779 0.000345 0
0.00071811 0.000453059 0
0.000738069 0.000437967 0
0.000752085 0.000365972 0
0.000728123 0.000374583 0
0.000741845 0.000354664 0
[...]
CELL_DATA 58684
VECTORS velocity DOUBLE
65.3652 0.348051 0
74.0642 0.000232862 0
73.4436 -0.000126171 0
74.0094 0.00798179 0
73.4039 -0.00427449 0
73.9813 0.0176464 0
73.3688 -0.0154187 0
67.7881 -0.00210311 0
67.7902 -0.0151891 0
67.8367 -0.00185696 0
67.8898 -0.00279414 0
67.9163 -0.231903 0
67.8025 -0.0709346 0
67.9601 -0.0728635 0
67.7946 -0.117807 0
68.0675 -0.0996046 0
67.791 -0.0706973 0
68.2673 -0.0955378 0
67.8188 -0.197179 0
68.585 -0.0648198 0
67.8022 -0.069827 0
68.2543 -0.225272 0
72.3117 -1.25079 0
67.7874 0.011008 0
67.7831 0.0505736 0
67.7874 0.0243636 0
67.8137 0.130374 0
67.8008 0.020473 0
67.8104 0.170792 0
67.8745 0.0417636 0
67.8181 0.138578 0
67.8389 0.029319 0
67.7668 0.135738 0
68.1031 0.11115 0
67.938 0.832911 0
67.995 0.0519829 0
67.8378 0.174438 0
68.1539 0.247058 0
73.9551 0.00684638 0
73.9143 0.000387102 0
73.8396 0.0393746 0
73.8308 0.027927 0
73.7771 0.00124156 0
73.6842 0.0461995 0
73.6714 0.061814 0
73.6548 0.0401118 0
73.5931 0.00203422 0
73.5118 0.0822815 0
73.5066 0.066214 0
73.4472 0.00485647 0
73.3335 0.0965058 0
73.3275 0.102423 0
73.3111 0.0614288 0
73.2544 0.00725671 0
73.1737 0.116446 0
73.1748 0.0845187 0
73.1234 0.0115667 0
73.0021 0.144726 0
73.0047 0.127908 0
72.9924 0.072362 0
72.9236 0.00397106 0
72.8794 0.13664 0
72.8421 0.0811892 0
72.7692 0.00559647 0
72.725 0.134364 0
72.7183 0.114509 0
72.682 0.0814058 0
72.6732 0.00460594 0
72.6471 0.0930758 0
72.6246 0.060595 0
72.6152 0.00364614 0
72.5971 0.0698742 0
72.5843 0.0470261 0
72.5724 0.0581934 0
72.5842 0.0018732 0
72.573 0.0116114 0
72.5789 0.00813781 0
72.5975 8.21894e-05 0
72.5901 -0.0222486 0
72.6335 -0.0404554 0
72.595 -0.0273004 0
72.6593 -0.00163007 0
72.6883 -0.0437736 0
72.6491 -0.0734321 0
72.7827 -0.0657747 0
72.7386 -0.0889693 0
72.7253 -0.108207 0
72.7773 -0.147177 0
72.8872 -0.110146 0
72.9587 -0.149811 0
72.835 -0.124138 0
72.9214 -0.187015 0
73.0117 -0.143967 0
72.9993 -0.145809 0
73.0354 -0.202073 0
73.1856 -0.170137 0
73.0993 -0.152305 0
73.1448 -0.201557 0
73.2207 -0.214159 0
73.2391 -0.145711 0
73.3072 -0.112058 0
73.2536 -0.153036 0
73.3021 -0.0281437 0
73.3422 -0.12624 0
73.3869 -0.0974428 0
73.3722 -0.108815 0
73.3238 -0.00806951 0
73.3995 -0.0821176 0
73.4301 -0.0545576 0
73.3494 0.0522353 0
73.355 0.0169721 0
73.3799 0.000337364 0
73.413 0.0745795 0
73.3036 0.0768113 0
73.3233 0.117891 0
73.2933 0.089918 0
73.0696 0.00440258 0
73.3912 0.172065 0
73.3404 0.248453 0
73.172 0.251473 0
72.9886 0.236321 0
73.0882 0.168309 0
73.1717 0.334799 0
72.8333 0.238606 0
72.9983 0.406751 0
72.8767 0.131333 0
72.9154 0.347677 0
72.587 0.114878 0
72.8235 0.42935 0
72.7032 0.515626 0
72.3215 0.235958 0
72.488 0.378807 0
72.4489 0.166389 0
72.2985 0.452688 0
72.3653 0.120053 0
72.4454 0.495186 0
72.0869 0.409705 0
71.9863 0.221008 0
71.9454 0.232017 0
72.1055 0.347332 0
71.9907 0.319506 0
72.011 0.123117 0
71.8396 0.273086 0
71.7666 0.224048 0
71.7067 0.00800065 0
71.8684 0.0579262 0
71.7677 0.154077 0
71.7474 0.148258 0
71.7714 -0.000340651 0
71.6124 -0.0295532 0
71.5937 -0.114316 0
71.6755 -0.184783 0
71.7247 -0.0621643 0
71.5846 -0.178037 0
71.5914 -0.208971 0
71.6595 -0.05086 0
71.5815 -0.28921 0
71.6436 -0.433805 0
71.7575 -0.356392 0
71.656 -0.395572 0
71.8151 -0.422552 0
71.6754 -0.564231 0
71.7812 -0.159734 0
71.6728 -0.552692 0
71.8125 -0.610233 0
71.8645 -0.177473 0
71.9694 -0.747197 0
72.0471 -0.647072 0
72.0318 -0.372102 0
72.0716 -0.242426 0
71.9741 -0.771465 0
72.0757 -0.851287 0
72.0399 -0.123692 0
72.2068 -0.739284 0
72.3257 -0.701845 0
72.1478 -0.486354 0
72.1941 -0.241122 0
72.2052 -0.277295 0
72.4046 -0.781623 0
72.1887 -0.119 0
72.5009 -0.565298 0
72.5134 -0.400087 0
72.5378 -0.484671 0
72.1423 -0.00581375 0
72.5926 -0.238211 0
72.455 -0.248915 0
72.3627 -0.0173109 0
72.3253 0.0876719 0
72.685 -0.162577 0
72.6306 -0.0545182 0
72.1488 -0.0202357 0
72.5851 0.117517 0
72.5772 0.189009 0
72.5244 0.184737 0
71.8425 0.0831361 0
72.355 0.193667 0
72.3729 0.458463 0
71.9686 0.358194 0
72.0733 0.289177 0
72.1925 0.595578 0
72.2794 0.553566 0
71.8593 0.0621564 0
72.0418 0.719118 0
71.9486 0.625643 0
71.4583 0.0414015 0
71.7374 0.684338 0
71.9185 0.400918 0
71.488 0.236422 0
71.4514 0.279328 0
71.6038 0.522775 0
71.5865 0.689247 0
71.4434 0.0600277 0
71.2621 0.401562 0
71.3536 0.643284 0
71.0768 0.295411 0
71.412 -0.00516871 0
71.2864 0.126306 0
71.0863 0.191945 0
71.3983 -0.0134624 0
71.0341 0.103721 0
71.2775 -0.171282 0
71.0281 0.0961927 0
71.4997 -0.238831 0
71.0117 -0.366788 0
71.0071 -0.358175 0
71.5213 -0.11614 0
71.0001 -0.54117 0
71.2428 -0.931854 0
71.3804 -0.646891 0
71.5486 -0.50096 0
71.2099 -1.18291 0
71.7867 -0.543868 0
72.2166 -0.0961018 0
71.2941 -0.922869 0
71.3627 -1.33683 0
71.569 -1.5076 0
72.1681 -0.534072 0
71.9056 -1.4685 0
72.1814 -1.72704 0
72.4384 -0.183456 0
72.5307 -1.78721 0
72.2818 -1.98234 0
72.2584 -1.4061 0
72.6043 -0.672752 0
72.7296 -0.811625 0
72.6331 -2.08235 0
73.063 -0.00530647 0
72.8839 -2.26776 0
73.1906 -2.10394 0
73.0766 -2.2639 0
73.401 -0.476267 0
73.3827 -1.75849 0
73.8519 -1.71085 0
73.5155 -0.00383551 0
74.0021 -2.02961 0
74.3044 -1.595 0
73.7515 -1.22751 0
73.6066 -0.539567 0
74.2808 -1.81049 0
73.833 -0.645231 0
73.9169 -0.0605442 0
74.1791 -1.19122 0
74.6242 -1.43346 0
74.8245 -1.28816 0
74.0702 -0.221788 0
74.7485 -0.872709 0
74.9066 -1.08018 0
74.1385 -0.0680339 0
74.9695 -0.925269 0
75.0759 -0.685768 0
74.8666 -0.453355 0
74.1967 0.00312156 0
75.1296 -0.426732 0
74.7107 -0.100422 0
74.908 -0.0307524 0
75.067 -0.36955 0
74.987 -0.239886 0
75.2594 -0.160598 0
74.3888 0.0826916 0
75.2397 -0.192265 0
75.1356 0.0249979 0
75.304 0.0829113 0
74.2853 0.0215018 0
75.3817 0.33036 0
75.3444 0.428793 0
73.896 0.079513 0
75.4502 0.176276 0
75.5726 0.365605 0
74.6221 0.579305 0
74.3299 0.267284 0
75.1265 0.345912 0
75.6472 0.59383 0
74.0473 0.149431 0
75.6367 0.950815 0
75.6561 0.557773 0
75.6743 0.65786 0
73.7746 0.668942 0
75.117 1.13322 0
75.7806 1.12212 0
73.7294 0.116946 0
75.6965 1.35949 0
75.6404 1.45798 0
75.3699 2.34495 0
72.6944 0.180654 0
75.9193 2.02815 0
74.7351 1.57248 0
73.5473 0.750877 0
73.5319 1.48767 0
75.8653 2.28228 0
75.5333 2.78643 0
73.0016 0.308648 0
75.4894 3.15311 0
73.346 -0.00152331 0
73.3314 9.72588e-05 0
73.2996 -0.0147182 0
73.2961 -0.0066397 0
73.2782 0.000155274 0
73.2564 -0.00944941 0
73.255 -0.00644179 0
73.2495 0.00164737 0
73.2439 0.000990089 0
73.2434 0.00220974 0
73.2425 0.00519053 0
73.2403 0.00131828 0
73.2509 0.0113102 0
73.2504 0.0151694 0
73.2504 0.0134944 0
73.2562 0.00248486 0
73.2698 0.0237061 0
73.2691 0.0207402 0
73.2768 0.00327157 0
73.3025 0.0331887 0
73.3017 0.0313323 0
73.3243 0.0381465 0
73.3033 0.0180245 0
73.3341 0.0204488 0
73.3627 0.0296517 0
73.334 0.016171 0
73.3628 0.0169802 0
73.369 0.0119494 0
73.3676 0.00984838 0
73.3539 0.0103333 0
73.3702 -0.00195872 0
73.3568 -0.0156817 0
73.3623 -0.00054824 0
73.3316 -0.0480322 0
73.3328 -0.0605809 0
73.3191 -0.0439152 0
73.3481 -0.0185948 0
73.3157 -0.0625543 0
73.2704 -0.0694964 0
73.2985 -0.0420096 0
73.2045 -0.162875 0
73.2143 -0.0750804 0
73.1696 -0.110488 0
73.2176 -0.0843694 0
73.1531 -0.167114 0
73.0279 -0.198758 0
72.9784 -0.118504 0
73.0509 -0.189244 0
72.9219 -0.22411 0
72.9128 -0.254687 0
72.7947 -0.126061 0
72.8387 -0.169821 0
72.7492 -0.22304 0
72.6595 -0.315058 0
72.6511 -0.141057 0
72.6104 -0.22311 0
72.5529 -0.299313 0
72.5231 -0.136824 0
72.6182 -0.207547 0
72.4671 -0.28266 0
72.468 -0.253626 0
72.4497 -0.116311 0
72.3863 -0.0722498 0
72.3743 -0.145366 0
72.5717 -0.0871517 0
72.3246 -0.142256 0
72.2658 -0.0724447 0
72.2998 -0.101047 0
72.3308 -0.0739657 0
72.2608 -0.0262857 0
72.2532 -0.0156895 0
72.3059 0.0638149 0
72.2888 -0.0194706 0
72.2595 0.0789613 0
72.273 0.136465 0
72.3035 -0.000619107 0
72.2978 0.102287 0
72.3242 0.240595 0
72.3196 0.0842335 0
72.3435 0.218295 0
72.423 0.347673 0
72.3976 0.23696 0
72.5019 0.099809 0
72.466 0.327604 0
72.5173 0.371713 0
72.5618 0.0937481 0
72.5925 0.448811 0
72.5136 0.314522 0
72.6881 0.366383 0
72.5726 0.240352 0
72.7188 0.498749 0
72.9108 0.560394 0
72.7823 0.132131 0
72.779 0.379176 0
73.0056 0.564074 0
72.9088 0.3734 0
72.7563 0.168631 0
73.0509 0.475137 0
73.0862 0.427552 0
72.8853 0.0809387 0
72.9805 0.129275 0
73.1238 0.263362 0
73.187 0.379782 0
72.9506 0.227934 0
73.2129 0.263164 0
73.2108 0.193525 0
72.8771 0.0192847 0
73.0618 0.105214 0
73.1672 0.0342801 0
73.1002 -0.0236168 0
72.8867 0.037482 0
73.0914 -0.0952915 0
73.0845 -0.202941 0
72.6937 -0.100178 0
73.0131 -0.121941 0
72.903 -0.37921 0
72.8251 -0.331062 0
72.7703 -0.0329373 0
72.8415 -0.426919 0
72.5767 -0.67064 0
72.4634 -0.137856 0
72.5456 -0.545159 0
72.2395 -0.217711 0
72.3319 -0.589978 0
72.313 -0.287911 0
72.3186 -0.768865 0
72.0727 -0.747063 0
71.9836 -0.178611 0
72.0869 -0.734245 0
71.7802 -0.784836 0
71.6208 -0.126154 0
72.1148 -0.596606 0
71.7405 -0.59263 0
71.6035 -0.671037 0
71.656 -0.100898 0
71.5193 -0.524039 0
71.2573 -0.529872 0
71.2718 -0.338307 0
71.3415 -0.0777322 0
71.1199 -0.190949 0
71.4621 -0.148738 0
71.4767 -0.497324 0
71.1483 -0.330176 0
70.9856 -0.11722 0
70.9883 -0.0103784 0
71.3783 0.00313127 0
70.9208 0.219665 0
70.8987 0.288215 0
71.0036 0.420391 0
71.1337 0.201338 0
71.2056 0.279911 0
70.954 0.429693 0
71.1616 0.0182496 0
70.9953 0.712068 0
71.0255 0.69227 0
71.1602 0.698526 0
71.2577 0.18172 0
71.1239 0.880419 0
71.3983 1.21714 0
71.3794 0.403095 0
71.3166 0.397037 0
71.3986 0.960197 0
71.659 1.33445 0
71.2378 0.207704 0
71.776 1.43931 0
71.8474 1.36559 0
71.6395 0.215203 0
72.2141 1.49858 0
72.2957 1.40896 0
72.3734 1.02166 0
71.9243 0.423369 0
71.9101 0.512267 0
72.1929 1.28485 0
71.7595 0.341297 0
72.6253 1.4646 0
72.7358 1.24734 0
72.5728 0.955191 0
72.0172 0.145124 0
73.0228 1.01558 0
73.0268 0.955428 0
72.554 0.539274 0
72.845 0.561297 0
72.5041 0.4006 0
73.0722 0.771777 0
72.3115 0.295142 0
73.218 0.614923 0
73.25 0.508213 0
72.2759 0.19789 0
73.1095 0.301355 0
73.255 0.132329 0
73.1963 0.211011 0
72.5834 0.0887982 0
73.1442 -0.0922558 0
73.1058 -0.1742 0
72.898 0.264354 0
72.8782 -0.0500121 0
72.7208 0.139774 0
72.9076 -0.340426 0
72.5795 0.0279268 0
72.8565 -0.333402 0
72.8447 -0.281215 0
72.5303 0.0236459 0
72.8678 -0.181682 0
72.5401 -0.238918 0
72.4551 -0.17415 0
72.6818 0.0686378 0
72.4203 -0.0485525 0
72.4175 -0.0416856 0
72.7955 -0.0408079 0
72.617 0.264918 0
72.7286 0.102083 0
72.3745 0.19363 0
72.759 0.0492402 0
72.3468 0.441006 0
72.3809 0.576132 0
72.676 0.0215398 0
72.6594 0.601122 0
72.5791 1.14176 0
72.7709 1.27211 0
72.8967 0.189288 0
72.7396 1.21456 0
73.0164 1.7037 0
72.703 0.601578 0
73.5545 1.19983 0
73.076 0.207803 0
72.9947 1.40365 0
73.2704 0.0983791 0
73.4931 1.99381 0
73.6159 1.93898 0
73.0935 0.0656017 0
73.8177 1.62627 0
74.0569 2.01877 0
74.5203 2.07139 0
73.8591 0.18701 0
74.8487 2.10936 0
75.004 1.8856 0
74.1848 0.311613 0
75.1853 2.11481 0
75.0538 0.990068 0
73.8395 0.565798 0
73.6153 0.358011 0
75.6164 1.96236 0
75.6502 1.24771 0
76.2095 1.3919 0
73.8281 0.00403325 0
75.9444 0.722481 0
76.5441 0.684291 0
74.0885 0.0638634 0
75.6474 0.648869 0
76.7693 0.119653 0
75.7465 -0.0132892 0
74.4193 0.0841412 0
76.7591 -0.245836 0
76.8213 -0.589201 0
75.1284 0.400557 0
75.7102 -1.11253 0
74.4318 -1.22478 0
76.5907 -0.807771 0
74.1411 -0.106056 0
76.7933 -1.52292 0
75.11 3.62799 0
75.4532 3.1325 0
72.1556 1.02761 0
75.0904 3.65221 0
73.8144 3.56877 0
74.6671 4.09818 0
72.432 0.392395 0
74.2074 4.32475 0
73.5956 4.42381 0
71.739 0.532676 0
73.6141 4.63689 0
76.7815 -1.92808 0
74.1836 -0.0442115 0
76.689 -2.21806 0
75.9226 -2.66939 0
75.4191 -2.2217 0
73.9493 -0.11815 0
76.1156 -3.11571 0
72.9003 4.42523 0
75.681 -4.04325 0
74.0286 -0.657264 0
75.5242 -3.91412 0
74.8424 -4.63753 0
71.135 1.32587 0
74.6415 -4.58359 0
75.3133 -2.14692 0
75.104 -4.0703 0
73.7784 -2.98216 0
72.8733 -0.460291 0
74.4687 -4.19031 0
73.9925 -4.52496 0
72.5627 4.68584 0
74.01 -4.55287 0
73.3488 -0.227808 0
73.3636 -4.84054 0
72.9413 -5.30839 0
72.5077 -0.307705 0
72.2632 -5.46695 0
72.5874 -3.91845 0
71.1867 -0.39903 0
71.6554 -5.57865 0
71.5969 -3.06097 0
72.5794 -2.25837 0
72.056 -4.76364 0
71.2892 -5.06207 0
72.8226 2.33922 0
70.5877 0.297551 0
72.329 1.58364 0
71.5669 -0.0333473 0
70.9812 -5.46237 0
72.4137 4.48273 0
70.4636 0.216352 0
71.869 3.8302 0
70.4179 -5.44458 0
71.2855 -1.06572 0
69.8983 -3.92886 0
72.0211 5.12475 0
69.8166 1.20479 0
71.9992 5.07889 0
70.5375 4.44653 0
69.9518 0.238847 0
71.0864 4.6164 0
70.2468 -4.08106 0
70.9911 -0.315008 0
69.8539 -5.57414 0
69.908 -5.39457 0
71.2775 4.93407 0
70.0527 4.87107 0
69.541 0.01838 0
70.7282 4.95548 0
69.352 3.11606 0
69.587 1.38296 0
69.2199 -5.53815 0
69.6601 -0.69012 0
69.4663 -5.43889 0
69.2461 5.17278 0
68.8103 -5.10722 0
69.0949 -0.662591 0
68.9506 -2.14625 0
68.0797 -4.89869 0
69.9019 -2.59896 0
67.9337 -4.70972 0
68.7843 -0.178759 0
67.3221 -4.53223 0
68.8396 1.77885 0
69.1285 0.269366 0
68.9566 4.37612 0
68.7571 0.0683805 0
68.7924 5.12667 0
68.67 4.87094 0
68.5401 0.125336 0
68.1334 4.28545 0
68.3974 0.0922607 0
68.2023 -4.21201 0
68.7911 -0.344428 0
69.2766 3.71332 0
67.8614 0.613442 0
67.931 4.07468 0
67.2623 -4.53559 0
68.8814 -0.151254 0
66.1396 -3.82115 0
67.8074 -0.251806 0
66.6373 -3.80362 0
68.3988 1.67763 0
67.7884 0.116 0
68.6742 -3.37554 0
67.7873 -0.0695415 0
66.2375 -3.58354 0
67.4743 3.71037 0
67.2334 -2.7472 0
67.7951 -0.148278 0
66.4558 -3.04599 0
68.0286 2.06873 0
66.5356 1.42508 0
67.1068 3.23411 0
67.6664 -0.497847 0
66.3814 -3.37923 0
67.7618 0.379333 0
67.0747 4.31184 0
67.6461 -1.45538 0
67.7888 -0.047317 0
66.1602 -3.06827 0
66.9635 3.92911 0
67.8105 0.608478 0
66.8054 3.11926 0
66.6588 3.07338 0
67.7774 0.371973 0
66.1191 2.7769 0
65.5926 -2.70613 0
67.7796 -0.161866 0
65.3472 -2.72373 0
66.9759 -1.16955 0
67.7923 -0.102513 0
65.0642 -1.83258 0
66.1153 3.44393 0
67.7775 0.565551 0
66.9383 2.23464 0
65.4273 -1.60685 0
67.7369 -0.119717 0
64.9564 -1.50302 0
65.2817 2.57006 0
67.7647 0.305965 0
65.5324 2.44821 0
65.7458 2.00658 0
67.793 0.0666319 0
65.1932 2.14731 0
65.8314 -0.884631 0
67.7083 -0.222806 0
65.318 -0.798769 0
64.5176 -0.475662 0
67.3206 -0.421883 0
64.6911 -0.384625 0
67.1774 0.820602 0
67.7534 0.142293 0
66.6587 1.70382 0
65.1008 1.7264 0
67.6927 0.183208 0
64.6669 1.16879 0
67.5215 0.0356799 0
67.7834 -0.0489188 0
64.5935 -0.0428212 0
64.9287 0.0768674 0
67.7804 0.0330944 0
66.5078 0.347916 0
65.2067 0.472549 0
67.7824 0.00877324 0
67.3114 -3.71876 0
67.8142 -0.264795 0
67.7771 0.120398 0
68.2606 4.4309 0
68.4436 -5.09573 0
70.2723 -0.601944 0
69.4376 0.587975 0
70.577 5.24297 0
67.7492 0.295619 0
65.7746 3.30868 0
65.1546 -1.82873 0
67.7553 -0.114707 0
67.7801 -0.326753 0
67.5319 -2.31331 0
67.8663 0.625945 0
67.8523 0.199513 0
67.774 0.0983533 0
65.0338 1.52007 0
68.7211 0.298113 0
68.1963 1.08625 0
68.2258 -0.818377 0
69.1316 -0.435188 0
72.532 -0.699559 0
72.6031 -5.31763 0
73.8148 4.39306 0
72.2227 0.233012 0
67.817 1.20736 0
69.2307 4.98188 0
68.1655 -4.6529 0
68.5467 -1.44611 0
67.1632 -0.811422 0
65.7165 -0.0192394 0
67.0163 3.87125 0
68.0088 1.33463 0
67.7747 -1.03045 0
65.6515 -3.08085 0
76.5252 -2.70476 0
73.8609 -0.299361 0
73.5029 0.367148 0
75.8102 1.70048 0
67.8101 -0.451625 0
67.7941 -0.0290669 0
67.7874 0.138238 0
68.5103 0.506014 0
70.9709 0.392402 0
70.9181 2.35294 0
69.7597 -1.24352 0
71.6677 -1.04317 0
70.3335 2.91365 0
72.2507 4.77082 0
71.3651 -5.5535 0
70.5926 -1.18541 0
72.8285 0.817295 0
73.7208 2.62033 0
72.8781 -1.58106 0
73.3394 -0.0141227 0
74.2105 0.116786 0
76.3445 1.11427 0
75.318 0.0811681 0
74.0954 0.0148598 0
73.313 0.0034882 0
73.7175 2.12791 0
75.004 -0.64301 0
74.2028 -0.0644859 0
68.4227 -0.890927 0
68.0558 -0.3271 0
68.1539 0.859028 0
68.6661 0.622033 0
68.0551 0.875037 0
67.8048 0.221441 0
67.7852 -0.0677684 0
67.9049 -0.620348 0
74.1001 0.425927 0
74.7964 0.764379 0
74.4706 -0.284407 0
74.1642 -0.013062 0
66.5233 -0.51903 0
67.7845 -0.0324702 0
67.5406 -0.126405 0
67.7855 -0.193186 0
67.7887 0.205135 0
67.8322 0.754241 0
72.4354 0.795172 0
72.8189 0.0958175 0
73.6961 -0.00301671 0
73.9557 -1.96747 0
70.0444 -0.0177623 0
69.6219 -1.78131 0
70.3383 1.03371 0
69.5549 0.264165 0
67.9277 2.64281 0
67.6402 4.70951 0
67.2517 -4.12097 0
68.0171 -2.03368 0
68.2675 -1.30045 0
67.5177 -1.35247 0
68.0024 2.97661 0
68.1131 1.51641 0
74.26 -0.0980437 0
74.2635 0.00754671 0
73.7678 0.0966834 0
73.8673 1.23606 0
68.9348 -3.47354 0
69.6171 -3.36112 0
69.575 2.79238 0
70.0758 5.25872 0
68.4951 -2.5364 0
69.1973 -1.44952 0
69.2585 1.87743 0
68.7229 0.993659 0
72.5985 -0.372544 0
72.6264 0.0246274 0
72.8147 -0.011446 0
71.9747 -1.85352 0
67.5155 0.836006 0
67.777 0.0632293 0
73.7657 -0.152376 0
74.477 -0.619608 0
73.2696 0.49043 0
72.9533 0.0567732 0
68.2807 -0.572134 0
68.0167 -0.765631 0
68.6708 1.13353 0
68.046 0.531762 0
67.806 -0.0948106 0
67.9076 -0.387859 0
67.8527 0.27241 0
67.7907 0.123155 0
65.3203 1.27622 0
67.2956 1.16175 0
73.3841 -1.79477 0
75.7201 -3.64161 0
75.7256 2.61422 0
72.9956 1.15559 0
67.1032 -1.40096 0
65.6477 -1.84607 0
72.4813 0.105609 0
73.207 0.340234 0
71.7487 0.132027 0
72.9582 1.10064 0
71.1544 -0.731146 0
71.5927 -0.134165 0
71.237 0.408307 0
71.4144 -0.00371736 0
73.0328 -0.401435 0
73.0268 -1.14678 0
72.7191 0.119146 0
72.6529 0.00132747 0
67.8071 0.203069 0
67.6998 0.515353 0
66.9076 0.483065 0
65.4615 0.681207 0
67.7471 -0.055227 0
67.7806 -0.0711292 0
67.5022 0.373948 0
67.4572 -0.308808 0
76.7877 -0.232323 0
74.5855 -0.59922 0
74.8941 0.912676 0
75.5484 0.368779 0
67.8405 -0.0370413 0
67.8939 -0.207628 0
67.8026 0.0477065 0
68.0747 0.184866 0
72.0319 -0.292842 0
71.7914 -0.743508 0
72.6773 0.0429167 0
72.5213 0.0597972 0
71.4792 0.303859 0
71.5977 1.13124 0
71.9406 0.786999 0
71.6845 0.113194 0
68.0822 -0.512916 0
68.6618 -1.34654 0
68.4533 1.06827 0
68.1888 0.87137 0
68.7372 1.83513 0
67.702 1.33544 0
67.887 -1.1493 0
68.279 -1.75412 0
74.4167 0.488456 0
74.1215 1.93675 0
75.1699 -0.354326 0
74.9308 0.111644 0
67.6665 -0.585543 0
67.7208 -0.744265 0
67.8166 0.848177 0
67.529 1.01943 0
71.2443 1.05362 0
71.1702 0.169854 0
72.0335 0.0460685 0
72.4126 0.340381 0
72.2971 2.34002 0
73.7993 3.88891 0
73.317 -5.22613 0
72.889 -1.94739 0
66.0146 -2.21115 0
67.4969 -2.22973 0
72.0307 -1.8498 0
72.3278 -0.645691 0
71.3704 0.266997 0
73.1522 1.57867 0
65.9655 3.15209 0
67.1632 1.90271 0
71.436 -0.0313446 0
71.2217 -0.312994 0
72.4762 0.289716 0
72.3108 0.0980213 0
73.9746 -0.133237 0
74.0621 -0.666848 0
74.1279 0.935608 0
73.5451 0.137765 0
71.0269 0.806241 0
69.9869 0.208332 0
70.5613 -0.216331 0
70.9996 -1.92087 0
73.1465 0.586048 0
72.6517 0.916485 0
74.6054 -1.48336 0
74.5331 -0.300624 0
70.415 -2.40863 0
71.0414 -1.11462 0
70.6789 1.54164 0
72.4256 3.39541 0
71.009 0.0363777 0
71.2026 -0.0112635 0
72.1284 0.0174403 0
72.5574 -0.441372 0
71.5902 0.129681 0
71.4549 -0.00163109 0
71.9705 0.165971 0
71.6619 0.888121 0
69.1042 0.3074 0
68.9693 0.808562 0
68.9701 -0.707535 0
69.4832 -0.217512 0
70.1049 1.66056 0
69.1241 1.20433 0
68.5349 -1.79303 0
68.0588 -1.79442 0
74.2687 0.105825 0
74.2098 0.0486147 0
74.2648 0.128772 0
74.6324 0.17348 0
69.1591 2.33556 0
69.4212 1.55453 0
68.5415 -0.511945 0
68.4412 -0.190209 0
68.5083 0.179406 0
68.9594 0.541417 0
66.9512 -0.422151 0
67.558 -0.714396 0
76.5953 -1.27343 0
74.8053 -0.803775 0
74.4262 1.78791 0
75.8152 1.25538 0
67.7855 -0.475867 0
67.8042 -0.0785339 0
67.7482 0.197735 0
67.8836 0.676591 0
68.0286 0.0642895 0
68.0476 0.444388 0
68.0382 -0.192421 0
68.1191 -0.0107287 0
66.2722 -0.05161 0
64.5893 0.22192 0
72.1689 1.75897 0
74.2556 1.42281 0
73.7748 -1.3116 0
74.3669 -2.82376 0
67.7168 1.48065 0
67.405 0.92319 0
67.7906 0.00638377 0
67.674 0.118179 0
69.7537 4.20749 0
68.2272 2.62164 0
69.1085 -2.7454 0
68.4807 -5.29353 0
67.5084 0.703092 0
67.7476 0.423289 0
72.7182 0.115103 0
72.4525 -0.155021 0
72.7046 -2.02342 0
72.9969 -0.356405 0
72.0072 0.08226 0
71.7638 0.0639518 0
71.495 0.123505 0
71.1348 0.568062 0
75.3182 0.0512964 0
75.1026 0.471656 0
74.813 0.837577 0
75.8249 1.6269 0
67.5699 0.250331 0
67.1299 -1.01273 0
68.0101 1.02249 0
68.1726 1.31862 0
68.136 -1.34322 0