# vtk DataFile Version 3.0
Unstructured Grid for Triangles
ASCII
DATASET UNSTRUCTURED_GRID
POINTS 29612 DOUBLE
-0.000272397 1.23686e-05 0
-0.000295789 9.5838e-06 0
-0.000277865 -3.1235e-06 0
0.002024 0.0005 0
0.00203975 0.00049875 0
0.00205 0.0005 0
0.00203975 -0.00049875 0
0.002024 -0.0005 0
0.00205 -0.0005 0
0.0020295 0.0004975 0
0.0020295 -0.0004975 0
0.00201925 0.00049625 0
0.00201925 -0.00049625 0
-0.000529747 -0.000479887 0
-0.00055 -0.0005 0
-0.000524 -0.0005 0
-0.000505983 -0.000484325 0
-0.000498 -0.0005 0
-0.000472 -0.0005 0
-0.000483864 -0.000487761 0
-0.000446 -0.0005 0
-0.000459 -0.000484239 0
-0.000429453 -0.000424878 0
-0.000447486 -0.000420717 0
-0.000441829 -0.000436609 0
-0.000512578 -0.000462101 0
-0.000493078 -0.000453594 0
-0.00050706 -0.000439006 0
-0.000419243 -0.000477545 0
-0.000440307 -0.000471837 0
-0.00043691 -0.000486724 0
-0.000516129 -0.000420948 0
-0.000495355 -0.000415432 0
-0.000511646 -0.00040128 0
-0.000394697 -0.000481197 0
-0.000406302 -0.000455143 0
-0.000537257 -0.000388197 0
-0.000531099 -0.000407297 0
-0.000523982 -0.000388328 0
-0.000370063 -0.000472956 0
-0.000368 -0.0005 0
-0.00035308 -0.000485302 0
-0.0005072 -0.00037867 0
-0.000485506 -0.000383975 0
-0.000490949 -0.000359622 0
-0.000337127 -0.000484331 0
-0.000316 -0.0005 0
-0.000326495 -0.00047415 0
-0.00055 -0.00035 0
-0.000531201 -0.000370361 0
-0.000528367 -0.000346817 0
-0.000363898 -0.000448809 0
-0.000383315 -0.000460336 0
-3.26269e-05 -0.000415503 0
-5.99662e-05 -0.000409556 0
-5.46944e-05 -0.000429488 0
-0.000529747 0.000479887 0
-0.00055 0.0005 0
-0.00055 0.000475 0
-0.00055 0.00045 0
-0.000534834 0.000429171 0
-0.000526943 0.000442611 0
-0.000534026 0.000460176 0
-0.000531099 0.000407297 0
-0.000511672 0.000401178 0
-0.000516129 0.000420948 0
-0.000524 0.0005 0
-0.000505983 0.000484325 0
-0.000531201 0.000370361 0
-0.0005072 0.00037867 0
-0.000523982 0.000388328 0
-0.00048341 0.000469132 0
-0.000483679 0.000487539 0
-0.000528367 0.000346817 0
-0.00055 0.000325 0
-0.000525657 0.000328474 0
-0.000498 0.0005 0
-0.000530382 0.0003125 0
-0.000419243 0.000477545 0
-0.000440015 0.00047335 0
-0.000425917 0.000463678 0
-0.000435138 0.000262661 0
-0.000414982 0.000274462 0
-0.000435654 0.000285217 0
-0.000459 0.000484239 0
-0.000436852 0.000487027 0
-0.000446 0.0005 0
-0.000533308 0.000292503 0
-0.00055 0.000275 0
-0.000523377 0.000276953 0
-0.000425282 0.000446352 0
-0.000409368 0.000435728 0
-0.000406302 0.000455143 0
0.002009 0.000495 0
0.001998 0.0005 0
0.00199875 0.00049375 0
0.0019885 0.0004925 0
0.001972 0.0005 0
0.00197825 0.00049125 0
0.001968 0.00049 0
0.00195775 0.00048875 0
0.001946 0.0005 0
0.0019475 0.0004875 0
0.00193725 0.00048625 0
0.00192 0.0005 0
0.001927 0.000485 0
0.00191675 0.00048375 0
0.0019065 0.0004825 0
0.001894 0.0005 0
0.00189625 0.00048125 0
0.001886 0.00048 0
0.001868 0.0005 0
0.00187575 0.00047875 0
0.0018655 0.0004775 0
0.00185515 0.00048575 0
0.001842 0.0005 0
0.001845 0.000475 0
0.00185525 0.00047625 0
0.00182564 0.0004829 0
0.001816 0.0005 0
0.0018245 0.0004725 0
0.00183475 0.00047375 0
0.00181425 0.00047125 0
0.00180295 0.000482657 0
0.00179 0.0005 0
0.00179375 0.00046875 0
0.001804 0.00047 0
0.00178168 0.000480619 0
0.001764 0.0005 0
0.00177325 0.00046625 0
0.0017835 0.0004675 0
0.00176428 0.000476631 0
0.001763 0.000465 0
0.001738 0.0005 0
0.001751 0.000484164 0
0.00175275 0.00046375 0
0.00174025 0.000475632 0
0.001712 0.0005 0
0.00172615 0.000478449 0
0.001722 0.00046 0
0.00173225 0.00046125 0
0.0017015 0.0004575 0
0.00171243 0.00047381 0
0.00169554 0.000479999 0
0.001686 0.0005 0
0.00167507 0.000479751 0
0.00168498 0.000464861 0
0.00166 0.0005 0
0.0016558 0.000471459 0
0.00167135 0.000462887 0
0.001681 0.000455 0
0.0016605 0.0004525 0
0.00167075 0.00045375 0
0.00164059 0.000461599 0
0.0016394 0.000479551 0
0.00162881 0.00046615 0
0.00162975 0.00044875 0
0.00165025 0.00045125 0
0.00164 0.00045 0
0.00161754 0.000458641 0
0.00161722 0.000478101 0
0.00159956 0.000458294 0
0.00160925 0.00044625 0
0.0016195 0.0004475 0
0.00157667 0.000460322 0
0.00158875 0.00044375 0
0.00159194 0.000480155 0
0.001599 0.000445 0
0.0015785 0.0004425 0
0.00155808 0.000456757 0
0.00155647 0.000476701 0
0.00154059 0.000466642 0
0.00153756 0.000450083 0
0.00154839 0.000450446 0
0.00156825 0.00044125 0
0.00151954 0.000480508 0
0.00154052 0.00048477 0
0.00153 0.0005 0
0.00154775 0.00043875 0
0.00152142 0.000456625 0
0.00152821 0.000445753 0
0.0015375 0.0004375 0
0.001504 0.0005 0
0.00149644 0.000485168 0
0.00151787 0.000443178 0
0.00152725 0.00043625 0
0.00150675 0.00043375 0
0.001517 0.000435 0
0.00148119 0.000450887 0
0.00148072 0.000475756 0
0.00146584 0.000463516 0
0.00150008 0.00046396 0
0.00149351 0.00044543 0
0.0015061 0.000446252 0
0.001476 0.00043 0
0.00148625 0.00043125 0
0.00146492 0.000482975 0
0.00144888 0.000473562 0
0.00146676 0.000444259 0
0.00145255 0.000453656 0
0.00145652 0.000438669 0
0.00141401 0.000479821 0
0.001426 0.0005 0
0.0014 0.0005 0
0.00144374 0.000438862 0
0.0014555 0.0004275 0
0.001435 0.000425 0
0.00144525 0.00042625 0
0.00142746 0.000438121 0
0.00141288 0.000443191 0
0.00141707 0.000432778 0
0.0013921 0.000438992 0
0.00140355 0.00045932 0
0.00138302 0.00045922 0
0.00142912 0.000458869 0
0.00140592 0.000430037 0
0.0014145 0.0004225 0
0.00136458 0.00045869 0
0.00137106 0.00044063 0
0.001394 0.00042 0
0.00138259 0.000428915 0
0.00137484 0.000477094 0
0.00139166 0.000478902 0
0.0013586 0.000478984 0
0.00133449 0.000478649 0
0.00134717 0.000461848 0
0.00137256 0.000425134 0
0.00135323 0.000424541 0
0.00136325 0.00041625 0
0.00136122 0.00042876 0
0.00131206 0.000447284 0
0.00133168 0.000456738 0
0.00131773 0.000465243 0
0.00134756 0.000440343 0
0.00132747 0.000436463 0
0.00133483 0.000426786 0
0.00131081 0.00041867 0
0.00132382 0.000422815 0
0.00131507 0.00043122 0
0.00131059 0.000480123 0
0.0013325 0.0004125 0
0.0012915 0.0004075 0
0.0012982 0.000418199 0
0.00128915 0.000426216 0
0.00126366 0.000447574 0
0.00127331 0.000430908 0
0.00128781 0.000444872 0
0.00125336 0.000428376 0
0.00130218 0.000431077 0
0.00127894 0.000416344 0
0.00124774 0.000469608 0
0.00127668 0.000464148 0
0.00126591 0.00048331 0
0.00126722 0.000418415 0
0.00125768 0.000411931 0
0.00124326 0.000413546 0
0.0012505 0.0004025 0
0.00122408 0.000450118 0
0.00120276 0.000447432 0
0.0012139 0.000432235 0
0.00124336 0.000444132 0
0.00123056 0.000427595 0
0.00122977 0.000409049 0
0.0012185 0.000469217 0
0.00122676 0.000485947 0
0.00120525 0.000486094 0
0.00121479 0.000413153 0
0.00119547 0.000424221 0
0.00120249 0.000407448 0
0.00119925 0.00039625 0
0.00119346 0.000406114 0
0.00117479 0.000447279 0
0.00114726 0.000445259 0
0.0011571 0.000427814 0
0.00119443 0.000466611 0
0.00117447 0.000421596 0
0.00118421 0.00040752 0
0.00117409 0.000404437 0
0.00116775 0.000470073 0
0.001179 0.0004855 0
0.00115473 0.000484802 0
0.0011685 0.0003925 0
0.00117875 0.00039375 0
0.00115454 0.000400551 0
0.001148 0.00039 0
0.00115825 0.00039125 0
0.00111703 0.000423398 0
0.00113786 0.000426731 0
0.00112589 0.000443871 0
0.00113234 0.000406671 0
0.00114754 0.000413371 0
0.001106 0.000442326 0
0.00109703 0.000424261 0
0.0011275 0.0003875 0
0.00113775 0.00038875 0
0.00110211 0.000480875 0
0.00108244 0.000471951 0
0.00109312 0.000458413 0
0.00111755 0.000399116 0
0.0010944 0.000392972 0
0.00110415 0.000405876 0
0.00108839 0.000407536 0
0.00106472 0.000476905 0
0.00107274 0.000457868 0
0.00108011 0.000392415 0
0.00106885 0.000404365 0
0.00106625 0.000388708 0
0.00105286 0.000419254 0
0.00105055 0.000395469 0
0.00104215 0.000439764 0
0.00106346 0.000440629 0
0.00100945 0.000451249 0
0.00102825 0.00045614 0
0.00101189 0.000468452 0
0.00107625 0.00038125 0
0.00105575 0.00037875 0
0.001066 0.00038 0
0.00103352 0.000476905 0
0.00101803 0.00048465 0
0.00103685 0.000389398 0
0.0010245 0.00038825 0
0.00103525 0.00037625 0
0.00101092 0.000399779 0
0.00101267 0.000382619 0
0.00101382 0.00042025 0
0.00103187 0.000405286 0
0.00103359 0.000424605 0
0.000987383 0.00045447 0
0.000999411 0.000435161 0
0.0009744 0.000433145 0
0.0010045 0.0003725 0
0.00101475 0.00037375 0
0.000970845 0.000465215 0
0.000952614 0.000467664 0
0.000961768 0.000449944 0
0.00099729 0.000387704 0
0.000978901 0.00039598 0
0.000985823 0.000381492 0
0.000962289 0.000393709 0
0.000974259 0.000381279 0
0.00097375 0.00036875 0
0.000963045 0.000376631 0
0.000958 0.0005 0
0.000932 0.0005 0
0.000947542 0.00048457 0
0.000949675 0.000385245 0
0.000936214 0.000389472 0
0.000940006 0.000374906 0
0.000966411 0.000412573 0
0.000944241 0.000407079 0
0.000903569 0.000424993 0
0.000921701 0.000402409 0
0.000927439 0.000427744 0
0.000889795 0.000409067 0
0.000903071 0.00040248 0
0.000925447 0.000377721 0
0.00093275 0.00036375 0
0.000907708 0.000387127 0
0.000911303 0.000370839 0
0.000911933 0.000455145 0
0.000930678 0.000473279 0
0.000911886 0.000482603 0
0.000887724 0.000388076 0
0.000899595 0.000375116 0
0.000902 0.00036 0
0.000889241 0.00036954 0
0.000836977 0.000459472 0
0.000836223 0.000483578 0
0.000820467 0.000474142 0
0.000871227 0.000403557 0
0.000861 0.000355 0
0.000868368 0.000365714 0
0.00085484 0.00036588 0
0.000847735 0.000402845 0
0.000823121 0.000421599 0
0.000826582 0.000398147 0
0.000846943 0.00042454 0
0.000838832 0.000378613 0
0.000835569 0.000363808 0
0.000844098 0.00036291 0
0.00085075 0.00035375 0
0.000851465 0.000477164 0
0.00083025 0.00035125 0
0.000822824 0.000368659 0
0.00081446 0.000357362 0
0.000805884 0.000371794 0
0.000753471 0.000477524 0
0.000738313 0.000473927 0
0.000739102 0.000461526 0
0.00079826 0.000358588 0
0.000788607 0.000376287 0
0.000781733 0.000357987 0
0.000816783 0.000384471 0
0.000807975 0.000404095 0
0.000752138 0.000404775 0
0.000767682 0.000417043 0
0.000749617 0.000421803 0
0.000752903 0.000384008 0
0.000738293 0.000393136 0
0.000772614 0.000394048 0
0.00076863 0.000371878 0
0.000765995 0.000354121 0
0.000779 0.000345 0
0.00071811 0.000453059 0
0.000738069 0.000437967 0
0.000752085 0.000365972 0
0.000728123 0.000374583 0
0.000741845 0.000354664 0
[...]
CELL_DATA 58684
VECTORS velocity DOUBLE
65.1687 0.0984272 0
72.4168 3.94786e-05 0
74.2021 -0.000281465 0
72.3568 0.0104937 0
74.1111 -0.0179228 0
72.3341 0.0146998 0
74.0439 -0.0368567 0
67.7857 -0.00153131 0
67.7865 -0.0111735 0
67.8279 -0.00178559 0
67.8884 -0.0029329 0
67.9214 -0.303267 0
67.7953 -0.0661124 0
67.9808 -0.0939098 0
67.7868 -0.104281 0
68.1236 -0.12808 0
67.7875 -0.0481753 0
68.3517 -0.108015 0
67.8097 -0.198956 0
68.694 -0.0682011 0
67.7986 -0.0487943 0
68.3392 -0.260193 0
72.3432 -1.15976 0
67.7854 0.00104329 0
67.7792 0.0120957 0
67.7858 0.00484165 0
67.7817 0.0370388 0
67.7788 0.00499809 0
67.7822 0.0476386 0
67.8001 0.0196822 0
67.7916 0.0329091 0
67.7846 0.0131379 0
67.768 0.0320764 0
67.9613 0.0941205 0
67.7903 0.663193 0
67.8733 0.0398015 0
67.8001 0.0434824 0
67.9965 0.212178 0
72.3035 -0.0010683 0
72.2764 0.000895251 0
72.2424 0.0230146 0
72.2388 0.00673636 0
72.2084 0.00181191 0
72.1889 0.0164101 0
72.1886 0.0141229 0
72.182 0.000241756 0
72.1691 0.00179499 0
72.1684 0.0108683 0
72.1701 -0.0001591 0
72.1566 0.00417964 0
72.1669 0.00446046 0
72.1706 -0.00324423 0
72.1718 -0.00604287 0
72.1702 0.00322253 0
72.1862 -0.0057159 0
72.1899 -0.0063807 0
72.1863 0.00596638 0
72.213 -0.0117196 0
72.2152 -0.0115913 0
72.2209 -0.00624465 0
72.2218 0.0037529 0
72.2367 -0.00745957 0
72.2425 0.00317474 0
72.2482 0.00367678 0
72.2639 0.00848795 0
72.2674 0.0117189 0
72.2649 0.0190686 0
72.2527 0.00655424 0
72.266 0.040329 0
72.2571 0.037299 0
72.2402 0.0112309 0
72.2442 0.0695529 0
72.2369 0.0601446 0
72.2096 0.107578 0
72.193 0.00958358 0
72.1886 0.107272 0
72.1599 0.0700964 0
72.1218 0.0177309 0
72.1097 0.179024 0
72.0173 0.157996 0
72.1015 0.153433 0
72.0006 0.0160143 0
71.9593 0.114087 0
72.0068 0.219258 0
71.8214 0.143439 0
71.8782 0.196909 0
71.875 0.25909 0
71.804 0.315173 0
71.6973 0.208957 0
71.6069 0.273967 0
71.7555 0.251308 0
71.6507 0.335022 0
71.5684 0.239628 0
71.5686 0.247732 0
71.5396 0.334651 0
71.4066 0.270103 0
71.4997 0.231536 0
71.4408 0.314554 0
71.3835 0.318217 0
71.3811 0.208252 0
71.3464 0.16828 0
71.37 0.234511 0
71.3477 0.0417463 0
71.322 0.191683 0
71.2955 0.147949 0
71.3112 0.168443 0
71.358 0.0175818 0
71.3011 0.138285 0
71.2942 0.10444 0
71.3911 -0.0176716 0
71.373 0.0120018 0
71.3411 0.0396188 0
71.3642 -0.0292265 0
71.4388 -0.0464244 0
71.4736 -0.0798912 0
71.4693 -0.0590277 0
71.6669 0.000694881 0
71.4448 -0.120476 0
71.5082 -0.188837 0
71.6772 -0.195544 0
71.8155 -0.179929 0
71.677 -0.130422 0
71.6944 -0.256939 0
71.9518 -0.182222 0
71.866 -0.319874 0
71.8755 -0.0964923 0
71.937 -0.270837 0
72.1155 -0.0864232 0
72.0182 -0.339839 0
72.1356 -0.400658 0
72.3466 -0.17846 0
72.2966 -0.283187 0
72.2282 -0.117639 0
72.4621 -0.336706 0
72.2761 -0.0926719 0
72.3597 -0.372403 0
72.6395 -0.280178 0
72.6262 -0.134608 0
72.6377 -0.115152 0
72.5657 -0.236047 0
72.6943 -0.204815 0
72.4931 -0.0581036 0
72.7928 -0.138449 0
72.8541 -0.0811919 0
72.7231 0.0898942 0
72.6125 0.0260528 0
72.8227 -0.0330487 0
72.8095 -0.000643966 0
72.5846 0.0245035 0
72.8354 0.173279 0
72.865 0.271921 0
72.5729 0.249098 0
72.5567 0.151417 0
72.8095 0.301442 0
72.775 0.357823 0
72.524 0.0649083 0
72.7832 0.456951 0
72.6447 0.584158 0
72.3851 0.428455 0
72.558 0.49548 0
72.2724 0.461157 0
72.5376 0.681642 0
72.1732 0.160479 0
72.5199 0.647658 0
72.2737 0.631342 0
72.0493 0.169896 0
72.0758 0.710046 0
71.9584 0.573582 0
71.9396 0.313479 0
71.7931 0.162704 0
72.083 0.73177 0
71.9707 0.767103 0
71.8007 0.0851198 0
71.8104 0.553476 0
71.6868 0.472302 0
71.811 0.345984 0
71.7225 0.13012 0
71.7205 0.124068 0
71.6455 0.489064 0
71.69 0.00614164 0
71.5534 0.251694 0
71.5469 0.0748986 0
71.5554 0.0878565 0
71.7247 -0.00143773 0
71.5621 -0.160056 0
71.5742 -0.0411778 0
71.7014 -0.23489 0
71.7827 -0.374554 0
71.5337 -0.284472 0
71.6108 -0.389275 0
71.7794 -0.069824 0
71.66 -0.519523 0
71.7091 -0.65092 0
71.7523 -0.631469 0
72.1823 -0.161709 0
71.8399 -0.517124 0
72.0288 -0.911638 0
72.2889 -0.680705 0
72.1316 -0.557587 0
72.1788 -1.03828 0
72.1328 -1.00993 0
72.1751 -0.14028 0
72.377 -1.17496 0
72.4733 -1.06144 0
72.76 -0.139041 0
72.6853 -1.13488 0
72.4145 -0.746652 0
72.8608 -0.552343 0
72.9733 -0.677227 0
72.8078 -0.943237 0
72.8874 -1.17257 0
72.82 -0.271917 0
73.23 -0.902221 0
73.1595 -1.18741 0
73.5037 -0.896999 0
72.934 -0.00624386 0
73.2198 -0.643849 0
73.4951 -0.821561 0
72.9172 -0.162573 0
73.5743 -0.775029 0
73.339 -0.29197 0
73.6144 -0.79741 0
73.1939 -0.0710586 0
73.6678 -0.343197 0
73.6858 -0.423333 0
73.0531 -0.0468636 0
73.779 -0.306436 0
73.6374 -0.0258008 0
73.4336 -0.151043 0
73.3037 -0.0611894 0
73.6848 0.101317 0
73.2245 -0.0258704 0
73.1282 -0.0127685 0
73.5597 -0.00123106 0
73.5996 0.177047 0
73.4908 0.265764 0
73.1862 -0.0401873 0
73.3192 0.182348 0
73.174 0.245147 0
73.1572 -0.0286038 0
73.0576 0.135884 0
73.1126 0.303591 0
73.2421 0.0796675 0
73.2062 -0.105111 0
73.2131 -0.15447 0
72.983 0.153566 0
73.3305 -0.00312125 0
72.8984 0.133585 0
72.8097 -0.0793436 0
72.8422 0.00538512 0
73.4542 -0.282982 0
73.0785 -0.36005 0
72.8947 -0.634264 0
73.5953 -0.00457083 0
72.8796 -0.748444 0
73.2418 -1.10505 0
73.2876 -0.550732 0
73.5526 -0.386263 0
73.0256 -1.09705 0
73.602 -0.498425 0
73.981 -0.0882435 0
73.3636 -1.07627 0
73.2572 -1.5146 0
73.4914 -1.60821 0
74.0685 -0.343421 0
74.0625 -1.5305 0
73.6284 -1.75715 0
74.2636 -0.185159 0
73.9185 -2.10588 0
74.327 -2.22981 0
74.5587 -1.22712 0
74.5023 -0.00224743 0
74.786 -2.25883 0
74.893 -0.673547 0
75.1903 -0.722182 0
74.8965 -1.98931 0
74.8264 -1.48614 0
75.6231 -1.98793 0
74.8064 -0.181917 0
75.4778 -2.22709 0
75.6899 -1.28477 0
76.2153 -1.65615 0
74.6103 -0.0484979 0
76.6288 -0.793764 0
76.517 -0.48051 0
74.4331 0.0647191 0
76.8407 -1.39599 0
77.1307 -0.650956 0
75.3289 0.336255 0
74.8415 0.0829725 0
75.9931 -0.312955 0
77.201 -0.0568225 0
74.5774 0.127884 0
76.9899 0.76933 0
77.2473 -0.0551205 0
77.2561 0.200297 0
74.3235 0.702051 0
76.1457 1.07878 0
77.1342 1.10868 0
74.2528 0.118044 0
76.9546 1.56059 0
76.8774 1.61574 0
76.222 2.89008 0
73.04 0.210092 0
76.9809 2.55116 0
75.5184 1.77561 0
74.0508 0.822661 0
73.9956 1.71072 0
76.8269 2.9055 0
76.2042 3.4249 0
73.3945 0.352775 0
76.068 3.94679 0
73.9881 -0.00257274 0
73.9379 -0.00120809 0
73.8223 -0.0657657 0
73.8085 -0.0468077 0
73.7114 -0.00402605 0
73.5551 -0.0835923 0
73.5408 -0.100459 0
73.5066 -0.0647168 0
73.401 -0.00694062 0
73.2724 -0.140334 0
73.2677 -0.0990188 0
73.1721 -0.0124444 0
72.9959 -0.162562 0
72.9938 -0.166247 0
72.9705 -0.107257 0
72.8706 -0.0160014 0
72.747 -0.200192 0
72.7483 -0.15035 0
72.654 -0.0256813 0
72.4708 -0.238829 0
72.4741 -0.216164 0
72.297 -0.270684 0
72.4577 -0.118537 0
72.2226 -0.157293 0
72.0317 -0.237851 0
72.2163 -0.144821 0
72.0113 -0.198399 0
71.9486 -0.154016 0
71.8909 -0.218215 0
72.0191 -0.129451 0
71.8439 -0.131365 0
71.7859 -0.196976 0
71.8596 -0.10705 0
71.7248 -0.1668 0
71.7168 -0.129815 0
71.6991 -0.101047 0
71.7471 -0.0964879 0
71.7035 -0.0842528 0
71.673 -0.0611374 0
71.6919 -0.0559465 0
71.6778 -0.0514644 0
71.6991 -0.00806527 0
71.687 -0.0264562 0
71.6905 -0.0299882 0
71.7049 -0.00341564 0
71.7545 0.0236571 0
71.8009 0.0242665 0
71.7528 0.0298762 0
71.8192 0.0457137 0
71.8351 0.0674667 0
71.9236 0.0304898 0
71.8952 0.0464929 0
71.9532 0.0659569 0
72.0224 0.111649 0
72.0421 0.0431072 0
72.0672 0.0661183 0
72.1126 0.10904 0
72.1605 0.0398226 0
72.0771 0.0773309 0
72.1914 0.0968882 0
72.1997 0.0755672 0
72.2255 0.0111038 0
72.2603 0.00250274 0
72.2756 0.00233555 0
72.1115 0.0330805 0
72.3322 -0.0200964 0
72.3701 -0.100607 0
72.3368 -0.0505599 0
72.3054 -0.019668 0
72.3736 -0.146884 0
72.3767 -0.138473 0
72.2944 -0.13489 0
72.3446 -0.121536 0
72.3744 -0.231126 0
72.3578 -0.291751 0
72.2964 -0.0418152 0
72.3148 -0.220508 0
72.2911 -0.396111 0
72.2709 -0.173916 0
72.2621 -0.352322 0
72.1745 -0.477367 0
72.1885 -0.340388 0
72.0318 -0.136176 0
72.1149 -0.432054 0
72.0629 -0.480598 0
71.9511 -0.116139 0
71.9904 -0.535774 0
72.0521 -0.387799 0
71.8676 -0.414589 0
71.9768 -0.29009 0
71.8554 -0.547789 0
71.677 -0.536579 0
71.7106 -0.127983 0
71.7675 -0.384613 0
71.5984 -0.514855 0
71.654 -0.334283 0
71.7544 -0.174954 0
71.5543 -0.407705 0
71.5278 -0.329653 0
71.6062 -0.0619041 0
71.5668 -0.0858179 0
71.4935 -0.16879 0
71.471 -0.23441 0
71.5986 -0.171625 0
71.462 -0.120581 0
71.4756 -0.0368654 0
71.6584 0.0270469 0
71.5444 -0.0228498 0
71.5401 0.128233 0
71.5732 0.14892 0
71.6048 -0.005568 0
71.5971 0.225707 0
71.6398 0.327385 0
71.8244 0.135135 0
71.6627 0.230386 0
71.8306 0.495605 0
71.8487 0.393561 0
71.7139 0.0688581 0
71.8875 0.504982 0
72.1158 0.710283 0
71.9835 0.163025 0
72.1001 0.546535 0
72.1961 0.222221 0
72.2648 0.57216 0
72.1398 0.293763 0
72.3408 0.768748 0
72.5363 0.701598 0
72.3437 0.166154 0
72.4956 0.688704 0
72.7581 0.712045 0
72.5935 0.110699 0
72.4357 0.563322 0
72.7235 0.521787 0
72.8942 0.590734 0
72.5564 0.0884219 0
72.9227 0.448058 0
73.1459 0.437598 0
73.07 0.255908 0
72.759 0.060643 0
73.145 0.112746 0
72.7062 0.117677 0
72.9204 0.422663 0
73.1804 0.241898 0
73.2899 0.0386311 0
73.2738 -0.0741434 0
72.7221 0.00207866 0
73.294 -0.290831 0
73.3003 -0.341088 0
73.0878 -0.427432 0
72.8348 -0.191908 0
72.7388 -0.238232 0
73.1852 -0.462047 0
72.8276 -0.0302781 0
73.1017 -0.677144 0
73.0362 -0.657191 0
72.8639 -0.622868 0
72.6153 -0.154449 0
72.8786 -0.736957 0
72.6159 -0.993868 0
72.5076 -0.283717 0
72.6088 -0.308247 0
72.5798 -0.726946 0
72.3411 -0.936169 0
72.6413 -0.167107 0
72.2595 -0.998921 0
72.1732 -0.846344 0
72.2656 -0.106316 0
71.9329 -0.725532 0
71.8568 -0.640832 0
71.853 -0.250871 0
72.1291 -0.121042 0
72.1305 -0.20312 0
71.9277 -0.489329 0
72.2117 -0.163616 0
71.7015 -0.39508 0
71.633 -0.193459 0
71.8116 0.0724586 0
72.0843 -0.00677663 0
71.6027 0.254092 0
71.6115 0.37941 0
71.884 0.142927 0
71.9855 0.479651 0
72 0.174202 0
71.661 0.520219 0
72.0494 0.0364104 0
71.8009 0.926078 0
71.7934 0.981626 0
72.1106 0.087902 0
72.0236 1.07034 0
72.2153 1.42479 0
72.1127 1.33222 0
72.5373 0.271318 0
72.7019 1.69691 0
72.7969 1.88876 0
72.1379 0.78719 0
72.7717 1.36042 0
72.4309 0.503919 0
73.2545 2.12451 0
72.8276 0.184371 0
73.3623 2.06424 0
73.3729 1.9592 0
72.5897 0.143004 0
73.2069 1.73367 0
74.0651 2.0511 0
74.2747 2.01263 0
73.4327 0.461629 0
74.4045 1.89409 0
74.4931 2.01868 0
73.1991 1.22147 0
74.498 1.18169 0
73.7069 0.435721 0
74.7681 1.84325 0
73.7898 0.156735 0
75.0027 1.58749 0
75.122 1.47091 0
73.5132 0.118303 0
74.7975 1.21684 0
75.3678 1.03046 0
75.4845 0.88208 0
74.1773 0.264387 0
75.3391 0.854649 0
75.5145 0.618934 0
74.9587 1.00569 0
75.2976 0.381605 0
74.3354 0.173748 0
75.338 0.674111 0
74.4373 0.0652685 0
75.5534 0.388401 0
75.5832 0.272189 0
74.2618 0.06626 0
75.423 0.153004 0
75.5568 0.058473 0
75.5527 -0.0305685 0
74.6836 -0.0137249 0
75.5391 -0.119506 0
75.5532 -0.127763 0
74.8299 -0.0754923 0
75.5413 -0.156353 0
75.3902 -0.236014 0
74.913 0.0192056 0
74.7332 0.0799864 0
75.5702 -0.181419 0
75.5779 -0.284241 0
75.7084 -0.261748 0
74.5894 -0.0033128 0
75.6083 -0.433786 0
75.8288 -0.40398 0
74.6937 -0.0425714 0
75.5257 -0.439402 0
75.9483 -0.577172 0
75.4352 -0.660054 0
74.7742 -0.271066 0
75.9679 -0.728394 0
76.0575 -0.895091 0
75.2834 -0.420253 0
75.3419 -1.24561 0
74.3339 -1.23854 0
75.9375 -1.05193 0
74.2595 -0.17735 0
76.1621 -1.40994 0
75.532 4.41661 0
75.9884 3.8727 0
72.3522 1.17946 0
75.4921 4.38888 0
74.0361 4.16699 0
74.9314 4.8782 0
72.7064 0.452438 0
74.3556 5.0559 0
73.647 5.0625 0
71.8787 0.61167 0
73.6216 5.35652 0
76.1819 -1.69523 0
74.374 -0.108201 0
76.1651 -1.90168 0
75.5988 -2.30453 0
75.1464 -1.99613 0
74.0257 -0.132997 0
75.8248 -2.60742 0
72.887 4.99278 0
75.5787 -3.39843 0
73.9975 -0.682585 0
75.45 -3.34058 0
74.8942 -3.97908 0
71.1416 1.50232 0
74.7302 -4.004 0
75.0676 -1.96898 0
75.1064 -3.54382 0
73.7797 -2.69855 0
72.8817 -0.440772 0
74.5142 -3.69785 0
74.1105 -4.05421 0
72.4571 5.25958 0
74.1308 -4.04535 0
73.3505 -0.225015 0
73.5278 -4.38338 0
73.1862 -4.81486 0
72.529 -0.290185 0
72.5492 -5.03718 0
72.7163 -3.57964 0
71.271 -0.368907 0
71.99 -5.17671 0
71.7052 -2.83883 0
72.6168 -2.07481 0
72.27 -4.3882 0
71.5412 -4.73435 0
73.0107 2.69529 0
70.5338 0.335218 0
72.5308 1.82085 0
71.6296 -0.0300397 0
71.3109 -5.14305 0
72.2836 4.99447 0
70.3907 0.241745 0
71.7803 4.26711 0
70.7514 -5.17217 0
71.3655 -0.98952 0
70.1202 -3.78125 0
71.78 5.68181 0
69.6358 1.31281 0
71.757 5.61103 0
70.2744 4.82544 0
69.8067 0.263506 0
70.803 5.02235 0
70.4686 -3.85105 0
71.0792 -0.296663 0
70.1798 -5.32466 0
70.2198 -5.17485 0
71.0081 5.38458 0
69.7204 5.23048 0
69.3553 0.0172239 0
70.4248 5.36878 0
69.0425 3.31724 0
69.3775 1.48596 0
69.5424 -5.33861 0
69.7857 -0.677553 0
69.7795 -5.24252 0
68.839 5.48701 0
69.1004 -4.96022 0
69.218 -0.664237 0
69.0816 -2.15819 0
68.3367 -4.84866 0
70.0558 -2.51658 0
68.1842 -4.66239 0
68.899 -0.180399 0
67.5526 -4.53705 0
68.5457 1.81429 0
68.908 0.278218 0
68.5578 4.63873 0
68.5463 0.0620463 0
68.3666 5.41684 0
68.2572 5.1134 0
68.3421 0.112752 0
67.7259 4.46405 0
68.2192 0.0832532 0
68.403 -4.17313 0
68.9079 -0.350183 0
68.9405 3.96887 0
67.7724 0.349272 0
67.5276 4.19968 0
67.4733 -4.556 0
68.9972 -0.153686 0
66.2993 -3.9135 0
67.8089 -0.289743 0
66.7891 -3.87267 0
68.1007 1.56937 0
67.7858 0.0209261 0
68.8455 -3.3735 0
67.7857 -0.0530498 0
66.3568 -3.69172 0
67.0717 3.78051 0
67.3161 -2.8827 0
67.7886 -0.125503 0
66.5385 -3.18041 0
67.702 1.94088 0
66.2461 1.16724 0
66.7235 3.2365 0
67.6358 -0.818237 0
66.4818 -3.50574 0
67.7373 0.132829 0
66.6457 4.40802 0
67.6887 -1.65694 0
67.7866 -0.0429217 0
66.2305 -3.20919 0
66.5548 3.9756 0
67.7371 0.333802 0
66.442 3.07664 0
66.2913 3.02652 0
67.742 0.112422 0
65.7646 2.68391 0
65.6553 -2.88119 0
67.7664 -0.194662 0
65.3977 -2.89815 0
66.9305 -1.4471 0
67.7835 -0.124451 0
65.0352 -2.04424 0
65.7319 3.40978 0
67.6919 0.261716 0
66.6181 2.07205 0
65.3833 -1.82394 0
67.7031 -0.279811 0
64.9077 -1.72028 0
64.9289 2.45098 0
67.7106 0.0364359 0
65.191 2.31756 0
65.4228 1.84147 0
67.7847 -0.0258008 0
64.8774 1.99519 0
65.7387 -1.14046 0
67.6856 -0.474657 0
65.2094 -1.04223 0
64.3909 -0.703616 0
67.2375 -0.79529 0
64.5445 -0.611794 0
66.9633 0.482332 0
67.7488 -0.0459783 0
66.3623 1.48789 0
64.8187 1.54934 0
67.6481 -0.103501 0
64.4091 0.970987 0
67.4467 -0.337325 0
67.7723 -0.0804137 0
64.4198 -0.270338 0
64.7489 -0.15914 0
67.7505 -0.112015 0
66.3027 0.032313 0
64.9913 0.246645 0
67.7603 -0.0823059 0
67.4562 -3.77524 0
67.8108 -0.284511 0
67.7772 0.0232509 0
67.8458 4.60331 0
68.736 -4.97863 0
70.3892 -0.577302 0
69.2288 0.626021 0
70.2246 5.64734 0
67.7378 0.0585954 0
65.3923 3.25703 0
65.1316 -2.0371 0
67.7398 -0.12898 0
67.7575 -0.39167 0
67.6181 -2.44466 0
67.7532 0.423675 0
67.8001 0.0439928 0
67.7511 -0.0984036 0
64.7629 1.32976 0
68.5083 0.279704 0
67.9674 0.933982 0
68.3057 -0.921285 0
69.2556 -0.436003 0
72.5501 -0.655631 0
72.8671 -4.87098 0
73.874 5.06593 0
72.4632 0.268409 0
67.5837 0.963896 0
68.8244 5.27236 0
68.4006 -4.60693 0
68.6592 -1.49326 0
67.0988 -1.15182 0
65.549 -0.281252 0
66.6201 3.90265 0
67.7669 1.12217 0
67.7914 -1.29021 0
65.7208 -3.23021 0
76.0715 -2.25759 0
73.8838 -0.325669 0
73.9988 0.400103 0
76.9723 2.14961 0
67.7898 -0.612407 0
67.7915 -0.0196287 0
67.7722 0.0409642 0
68.3055 0.452607 0
70.9768 0.444034 0
70.8123 2.63165 0
69.8875 -1.21208 0
71.7298 -0.965115 0
70.1099 3.19731 0
72.0873 5.32597 0
71.6888 -5.18395 0
70.7055 -1.11598 0
73.1871 0.941987 0
74.0936 3.07309 0
72.8826 -1.47189 0
73.358 -0.0133971 0
74.6969 -0.0936178 0
75.7444 -0.312016 0
76.3629 -1.7645 0
74.6056 0.00828605 0
74.4279 0.000688143 0
75.5643 0.193895 0
74.4374 -2.06009 0
74.2874 -0.19341 0
68.517 -0.961366 0
68.0984 -0.40625 0
67.9541 0.740909 0
68.4506 0.573562 0
67.8694 0.72741 0
67.7804 0.054096 0
67.7849 -0.0494591 0
67.9207 -0.844402 0
74.6729 0.393748 0
75.5988 0.580685 0
74.5112 -0.49452 0
74.4699 -0.0660211 0
66.403 -0.844763 0
67.7798 -0.165989 0
67.4755 -0.470518 0
67.7788 -0.268602 0
67.7727 0.0337359 0
67.6934 0.518758 0
75.1793 1.27182 0
73.9975 0.243388 0
73.7364 -0.00565614 0
72.8319 -0.590938 0
70.1662 -0.0146513 0
69.7538 -1.7557 0
70.2323 1.16387 0
69.3616 0.285592 0
67.5875 2.59836 0
67.1999 4.87774 0
67.4259 -4.16808 0
68.0891 -2.15651 0
68.3512 -1.3992 0
67.5395 -1.59048 0
67.6347 3.02082 0
67.8349 1.33323 0
74.4075 -0.284976 0
74.5595 -0.123964 0
74.6727 -0.00697101 0
75.3238 0.0997384 0
69.1368 -3.42201 0
69.8108 -3.24555 0
69.2977 3.02793 0
69.7024 5.63868 0
68.6283 -2.57299 0
69.3286 -1.44902 0
68.9855 2.00203 0
68.4877 0.939937 0
73.9435 2.24929 0
73.1638 0.224729 0
73.2409 -0.00428587 0
73.2756 0.327702 0
67.3271 0.497214 0
67.7785 -0.0284144 0
73.7636 -0.183348 0
73.9279 -1.01563 0
74.7785 0.348024 0
74.1162 0.0659345 0
68.3678 -0.655962 0
68.0611 -0.961486 0
68.4309 1.06529 0
67.8957 0.432888 0
67.8029 -0.074597 0
67.923 -0.510379 0
67.7834 0.124286 0
67.7793 0.0242068 0
65.0599 1.06347 0
67.0527 0.848445 0
73.3559 -1.66343 0
75.5306 -3.09627 0
76.4614 3.29379 0
73.3516 1.33154 0
67.0778 -1.65421 0
65.6328 -2.05482 0
72.2693 0.14671 0
71.9344 1.14561 0
72.1952 -0.0500049 0
71.6146 0.228603 0
73.6847 -0.166158 0
73.1194 -0.0368023 0
73.287 -0.956666 0
72.8324 -0.00889943 0
73.3019 -0.160306 0
73.1507 -0.249745 0
73.7067 0.645876 0
73.4162 0.00636124 0
67.7669 0.0121692 0
67.6074 0.194559 0
66.7156 0.12879 0
65.2389 0.449872 0
67.7358 -0.259632 0
67.7568 -0.134935 0
67.3928 0.00987441 0
67.3838 -0.692288 0
76.0084 -0.694416 0
74.5426 -0.779698 0
75.7831 0.82005 0
77.0851 -0.646036 0
67.8324 -0.0417074 0
67.8954 -0.259116 0
67.783 0.0115857 0
67.9364 0.153457 0
73.1427 -0.0295707 0
73.3117 -0.0124502 0
72.8821 0.570351 0
72.415 0.123482 0
72.4088 -0.19691 0
72.3757 -0.732953 0
72.5151 -1.26073 0
72.4097 -0.234276 0
68.1509 -0.649645 0
68.7692 -1.3914 0
68.2085 0.973872 0
67.9895 0.764849 0
68.4411 1.80396 0
67.4461 1.07518 0
67.9209 -1.3589 0
68.3747 -1.83486 0
75.0413 -0.214391 0
75.4772 0.0743302 0
74.8972 -2.06512 0
75.3338 -0.611608 0
67.6418 -0.926216 0
67.712 -1.05838 0
67.6645 0.585569 0
67.311 0.703203 0
72.8009 -0.938564 0
72.7508 -0.151535 0
71.9472 -0.138671 0
71.9232 -0.790271 0
72.4139 2.67079 0
73.9064 4.47785 0
73.5437 -4.7072 0
72.8983 -1.79377 0
66.0316 -2.39919 0
67.5753 -2.35708 0
72.0841 -1.70617 0
72.3548 -0.602752 0
71.4477 0.308622 0
73.5254 1.82682 0
65.5952 3.08878 0
66.8579 1.68054 0
72.9837 -0.0272694 0
73.4273 -0.24714 0
72.1183 0.281827 0
72.1593 0.0510838 0
74.0617 -0.172651 0
74.0432 -0.722436 0
74.7491 0.975064 0
74.0461 0.145273 0
71.0382 0.914434 0
69.8467 0.231642 0
70.6656 -0.205116 0
71.1116 -1.78558 0
74.7077 0.433285 0
75.1134 1.02963 0
73.3255 -1.28504 0
74.3608 -0.866626 0
70.5623 -2.28137 0
71.1364 -1.0381 0
70.6066 1.73971 0
72.4316 3.82737 0
73.2114 -0.0981694 0
72.8104 0.00278089 0
71.7888 -0.110188 0
71.5409 0.0638718 0
72.5714 -0.285757 0
72.7236 -0.00686463 0
72.0924 -0.0418135 0
72.3148 -0.535178 0
68.8839 0.30688 0
68.7425 0.798074 0
69.093 -0.716645 0
69.6058 -0.216142 0
69.9385 1.83428 0
68.8762 1.21113 0
68.6573 -1.83116 0
68.1191 -1.9184 0
74.7291 -0.203235 0
74.6129 -0.113288 0
74.7671 0.00834225 0
75.0865 -0.251706 0
68.8583 2.48443 0
69.188 1.65289 0
68.6465 -0.535634 0
68.542 -0.201664 0
68.3146 0.15968 0
68.7333 0.539645 0
66.8404 -0.775157 0
67.5307 -1.06071 0
75.9697 -1.27699 0
74.6748 -0.921491 0
75.0573 2.06619 0
77.154 1.45542 0
67.7717 -0.667216 0
67.7993 -0.0742363 0
67.7588 0.0472513 0
67.7743 0.440613 0
67.9001 0.0493861 0
67.9049 0.373133 0
68.0792 -0.247898 0
68.1819 -0.0116041 0
66.1037 -0.344575 0
64.3993 -0.00215258 0
72.3414 2.02235 0
74.8993 1.59442 0
73.7275 -1.26375 0
74.2772 -2.53688 0
67.454 1.22423 0
67.1851 0.583155 0
67.7863 -0.0352945 0
67.6336 -0.177754 0
69.4101 4.51179 0
67.8898 2.61464 0
69.2651 -2.71551 0
68.7804 -5.16435 0
67.3659 0.374554 0
67.6978 0.130669 0
73.7354 0.880361 0
74.3126 2.06851 0
73.0363 0.139711 0
73.2838 -0.120325 0
71.9669 -0.182686 0
72.2642 -0.12778 0
72.3696 -0.0826518 0
72.8964 -0.524957 0
76.2039 -1.56403 0
76.0508 -0.0283764 0
75.2774 -0.201551 0
75.6079 -0.230904 0