# vtk DataFile Version 3.0
Unstructured Grid for Triangles
ASCII
DATASET UNSTRUCTURED_GRID
POINTS 29612 DOUBLE
-0.000272397 1.23686e-05 0
-0.000295789 9.5838e-06 0
-0.000277865 -3.1235e-06 0
0.002024 0.0005 0
0.00203975 0.00049875 0
0.00205 0.0005 0
0.00203975 -0.00049875 0
0.002024 -0.0005 0
0.00205 -0.0005 0
0.0020295 0.0004975 0
0.0020295 -0.0004975 0
0.00201925 0.00049625 0
0.00201925 -0.00049625 0
-0.000529747 -0.000479887 0
-0.00055 -0.0005 0
-0.000524 -0.0005 0
-0.000505983 -0.000484325 0
-0.000498 -0.0005 0
-0.000472 -0.0005 0
-0.000483864 -0.000487761 0
-0.000446 -0.0005 0
-0.000459 -0.000484239 0
-0.000429453 -0.000424878 0
-0.000447486 -0.000420717 0
-0.000441829 -0.000436609 0
-0.000512578 -0.000462101 0
-0.000493078 -0.000453594 0
-0.00050706 -0.000439006 0
-0.000419243 -0.000477545 0
-0.000440307 -0.000471837 0
-0.00043691 -0.000486724 0
-0.000516129 -0.000420948 0
-0.000495355 -0.000415432 0
-0.000511646 -0.00040128 0
-0.000394697 -0.000481197 0
-0.000406302 -0.000455143 0
-0.000537257 -0.000388197 0
-0.000531099 -0.000407297 0
-0.000523982 -0.000388328 0
-0.000370063 -0.000472956 0
-0.000368 -0.0005 0
-0.00035308 -0.000485302 0
-0.0005072 -0.00037867 0
-0.000485506 -0.000383975 0
-0.000490949 -0.000359622 0
-0.000337127 -0.000484331 0
-0.000316 -0.0005 0
-0.000326495 -0.00047415 0
-0.00055 -0.00035 0
-0.000531201 -0.000370361 0
-0.000528367 -0.000346817 0
-0.000363898 -0.000448809 0
-0.000383315 -0.000460336 0
-3.26269e-05 -0.000415503 0
-5.99662e-05 -0.000409556 0
-5.46944e-05 -0.000429488 0
-0.000529747 0.000479887 0
-0.00055 0.0005 0
-0.00055 0.000475 0
-0.00055 0.00045 0
-0.000534834 0.000429171 0
-0.000526943 0.000442611 0
-0.000534026 0.000460176 0
-0.000531099 0.000407297 0
-0.000511672 0.000401178 0
-0.000516129 0.000420948 0
-0.000524 0.0005 0
-0.000505983 0.000484325 0
-0.000531201 0.000370361 0
-0.0005072 0.00037867 0
-0.000523982 0.000388328 0
-0.00048341 0.000469132 0
-0.000483679 0.000487539 0
-0.000528367 0.000346817 0
-0.00055 0.000325 0
-0.000525657 0.000328474 0
-0.000498 0.0005 0
-0.000530382 0.0003125 0
-0.000419243 0.000477545 0
-0.000440015 0.00047335 0
-0.000425917 0.000463678 0
-0.000435138 0.000262661 0
-0.000414982 0.000274462 0
-0.000435654 0.000285217 0
-0.000459 0.000484239 0
-0.000436852 0.000487027 0
-0.000446 0.0005 0
-0.000533308 0.000292503 0
-0.00055 0.000275 0
-0.000523377 0.000276953 0
-0.000425282 0.000446352 0
-0.000409368 0.000435728 0
-0.000406302 0.000455143 0
0.002009 0.000495 0
0.001998 0.0005 0
0.00199875 0.00049375 0
0.0019885 0.0004925 0
0.001972 0.0005 0
0.00197825 0.00049125 0
0.001968 0.00049 0
0.00195775 0.00048875 0
0.001946 0.0005 0
0.0019475 0.0004875 0
0.00193725 0.00048625 0
0.00192 0.0005 0
0.001927 0.000485 0
0.00191675 0.00048375 0
0.0019065 0.0004825 0
0.001894 0.0005 0
0.00189625 0.00048125 0
0.001886 0.00048 0
0.001868 0.0005 0
0.00187575 0.00047875 0
0.0018655 0.0004775 0
0.00185515 0.00048575 0
0.001842 0.0005 0
0.001845 0.000475 0
0.00185525 0.00047625 0
0.00182564 0.0004829 0
0.001816 0.0005 0
0.0018245 0.0004725 0
0.00183475 0.00047375 0
0.00181425 0.00047125 0
0.00180295 0.000482657 0
0.00179 0.0005 0
0.00179375 0.00046875 0
0.001804 0.00047 0
0.00178168 0.000480619 0
0.001764 0.0005 0
0.00177325 0.00046625 0
0.0017835 0.0004675 0
0.00176428 0.000476631 0
0.001763 0.000465 0
0.001738 0.0005 0
0.001751 0.000484164 0
0.00175275 0.00046375 0
0.00174025 0.000475632 0
0.001712 0.0005 0
0.00172615 0.000478449 0
0.001722 0.00046 0
0.00173225 0.00046125 0
0.0017015 0.0004575 0
0.00171243 0.00047381 0
0.00169554 0.000479999 0
0.001686 0.0005 0
0.00167507 0.000479751 0
0.00168498 0.000464861 0
0.00166 0.0005 0
0.0016558 0.000471459 0
0.00167135 0.000462887 0
0.001681 0.000455 0
0.0016605 0.0004525 0
0.00167075 0.00045375 0
0.00164059 0.000461599 0
0.0016394 0.000479551 0
0.00162881 0.00046615 0
0.00162975 0.00044875 0
0.00165025 0.00045125 0
0.00164 0.00045 0
0.00161754 0.000458641 0
0.00161722 0.000478101 0
0.00159956 0.000458294 0
0.00160925 0.00044625 0
0.0016195 0.0004475 0
0.00157667 0.000460322 0
0.00158875 0.00044375 0
0.00159194 0.000480155 0
0.001599 0.000445 0
0.0015785 0.0004425 0
0.00155808 0.000456757 0
0.00155647 0.000476701 0
0.00154059 0.000466642 0
0.00153756 0.000450083 0
0.00154839 0.000450446 0
0.00156825 0.00044125 0
0.00151954 0.000480508 0
0.00154052 0.00048477 0
0.00153 0.0005 0
0.00154775 0.00043875 0
0.00152142 0.000456625 0
0.00152821 0.000445753 0
0.0015375 0.0004375 0
0.001504 0.0005 0
0.00149644 0.000485168 0
0.00151787 0.000443178 0
0.00152725 0.00043625 0
0.00150675 0.00043375 0
0.001517 0.000435 0
0.00148119 0.000450887 0
0.00148072 0.000475756 0
0.00146584 0.000463516 0
0.00150008 0.00046396 0
0.00149351 0.00044543 0
0.0015061 0.000446252 0
0.001476 0.00043 0
0.00148625 0.00043125 0
0.00146492 0.000482975 0
0.00144888 0.000473562 0
0.00146676 0.000444259 0
0.00145255 0.000453656 0
0.00145652 0.000438669 0
0.00141401 0.000479821 0
0.001426 0.0005 0
0.0014 0.0005 0
0.00144374 0.000438862 0
0.0014555 0.0004275 0
0.001435 0.000425 0
0.00144525 0.00042625 0
0.00142746 0.000438121 0
0.00141288 0.000443191 0
0.00141707 0.000432778 0
0.0013921 0.000438992 0
0.00140355 0.00045932 0
0.00138302 0.00045922 0
0.00142912 0.000458869 0
0.00140592 0.000430037 0
0.0014145 0.0004225 0
0.00136458 0.00045869 0
0.00137106 0.00044063 0
0.001394 0.00042 0
0.00138259 0.000428915 0
0.00137484 0.000477094 0
0.00139166 0.000478902 0
0.0013586 0.000478984 0
0.00133449 0.000478649 0
0.00134717 0.000461848 0
0.00137256 0.000425134 0
0.00135323 0.000424541 0
0.00136325 0.00041625 0
0.00136122 0.00042876 0
0.00131206 0.000447284 0
0.00133168 0.000456738 0
0.00131773 0.000465243 0
0.00134756 0.000440343 0
0.00132747 0.000436463 0
0.00133483 0.000426786 0
0.00131081 0.00041867 0
0.00132382 0.000422815 0
0.00131507 0.00043122 0
0.00131059 0.000480123 0
0.0013325 0.0004125 0
0.0012915 0.0004075 0
0.0012982 0.000418199 0
0.00128915 0.000426216 0
0.00126366 0.000447574 0
0.00127331 0.000430908 0
0.00128781 0.000444872 0
0.00125336 0.000428376 0
0.00130218 0.000431077 0
0.00127894 0.000416344 0
0.00124774 0.000469608 0
0.00127668 0.000464148 0
0.00126591 0.00048331 0
0.00126722 0.000418415 0
0.00125768 0.000411931 0
0.00124326 0.000413546 0
0.0012505 0.0004025 0
0.00122408 0.000450118 0
0.00120276 0.000447432 0
0.0012139 0.000432235 0
0.00124336 0.000444132 0
0.00123056 0.000427595 0
0.00122977 0.000409049 0
0.0012185 0.000469217 0
0.00122676 0.000485947 0
0.00120525 0.000486094 0
0.00121479 0.000413153 0
0.00119547 0.000424221 0
0.00120249 0.000407448 0
0.00119925 0.00039625 0
0.00119346 0.000406114 0
0.00117479 0.000447279 0
0.00114726 0.000445259 0
0.0011571 0.000427814 0
0.00119443 0.000466611 0
0.00117447 0.000421596 0
0.00118421 0.00040752 0
0.00117409 0.000404437 0
0.00116775 0.000470073 0
0.001179 0.0004855 0
0.00115473 0.000484802 0
0.0011685 0.0003925 0
0.00117875 0.00039375 0
0.00115454 0.000400551 0
0.001148 0.00039 0
0.00115825 0.00039125 0
0.00111703 0.000423398 0
0.00113786 0.000426731 0
0.00112589 0.000443871 0
0.00113234 0.000406671 0
0.00114754 0.000413371 0
0.001106 0.000442326 0
0.00109703 0.000424261 0
0.0011275 0.0003875 0
0.00113775 0.00038875 0
0.00110211 0.000480875 0
0.00108244 0.000471951 0
0.00109312 0.000458413 0
0.00111755 0.000399116 0
0.0010944 0.000392972 0
0.00110415 0.000405876 0
0.00108839 0.000407536 0
0.00106472 0.000476905 0
0.00107274 0.000457868 0
0.00108011 0.000392415 0
0.00106885 0.000404365 0
0.00106625 0.000388708 0
0.00105286 0.000419254 0
0.00105055 0.000395469 0
0.00104215 0.000439764 0
0.00106346 0.000440629 0
0.00100945 0.000451249 0
0.00102825 0.00045614 0
0.00101189 0.000468452 0
0.00107625 0.00038125 0
0.00105575 0.00037875 0
0.001066 0.00038 0
0.00103352 0.000476905 0
0.00101803 0.00048465 0
0.00103685 0.000389398 0
0.0010245 0.00038825 0
0.00103525 0.00037625 0
0.00101092 0.000399779 0
0.00101267 0.000382619 0
0.00101382 0.00042025 0
0.00103187 0.000405286 0
0.00103359 0.000424605 0
0.000987383 0.00045447 0
0.000999411 0.000435161 0
0.0009744 0.000433145 0
0.0010045 0.0003725 0
0.00101475 0.00037375 0
0.000970845 0.000465215 0
0.000952614 0.000467664 0
0.000961768 0.000449944 0
0.00099729 0.000387704 0
0.000978901 0.00039598 0
0.000985823 0.000381492 0
0.000962289 0.000393709 0
0.000974259 0.000381279 0
0.00097375 0.00036875 0
0.000963045 0.000376631 0
0.000958 0.0005 0
0.000932 0.0005 0
0.000947542 0.00048457 0
0.000949675 0.000385245 0
0.000936214 0.000389472 0
0.000940006 0.000374906 0
0.000966411 0.000412573 0
0.000944241 0.000407079 0
0.000903569 0.000424993 0
0.000921701 0.000402409 0
0.000927439 0.000427744 0
0.000889795 0.000409067 0
0.000903071 0.00040248 0
0.000925447 0.000377721 0
0.00093275 0.00036375 0
0.000907708 0.000387127 0
0.000911303 0.000370839 0
0.000911933 0.000455145 0
0.000930678 0.000473279 0
0.000911886 0.000482603 0
0.000887724 0.000388076 0
0.000899595 0.000375116 0
0.000902 0.00036 0
0.000889241 0.00036954 0
0.000836977 0.000459472 0
0.000836223 0.000483578 0
0.000820467 0.000474142 0
0.000871227 0.000403557 0
0.000861 0.000355 0
0.000868368 0.000365714 0
0.00085484 0.00036588 0
0.000847735 0.000402845 0
0.000823121 0.000421599 0
0.000826582 0.000398147 0
0.000846943 0.00042454 0
0.000838832 0.000378613 0
0.000835569 0.000363808 0
0.000844098 0.00036291 0
0.00085075 0.00035375 0
0.000851465 0.000477164 0
0.00083025 0.00035125 0
0.000822824 0.000368659 0
0.00081446 0.000357362 0
0.000805884 0.000371794 0
0.000753471 0.000477524 0
0.000738313 0.000473927 0
0.000739102 0.000461526 0
0.00079826 0.000358588 0
0.000788607 0.000376287 0
0.000781733 0.000357987 0
0.000816783 0.000384471 0
0.000807975 0.000404095 0
0.000752138 0.000404775 0
0.000767682 0.000417043 0
0.000749617 0.000421803 0
0.000752903 0.000384008 0
0.000738293 0.000393136 0
0.000772614 0.000394048 0
0.00076863 0.000371878 0
0.000765995 0.000354121 0
0.000779 0.000345 0
0.00071811 0.000453059 0
0.000738069 0.000437967 0
0.000752085 0.000365972 0
0.000728123 0.000374583 0
0.000741845 0.000354664 0
[...]
CELL_DATA 58684
VECTORS velocity DOUBLE
65.0178 0.673426 0
72.9602 6.77693e-05 0
72.7342 9.4897e-05 0
72.8568 0.00957929 0
72.7589 0.000959495 0
72.8036 0.0304662 0
72.7826 0.0104435 0
67.7724 -0.0045406 0
67.7656 -0.0170376 0
67.7819 -0.0043838 0
67.8129 -0.00581182 0
67.822 -0.253864 0
67.7656 -0.0855348 0
67.8608 -0.078785 0
67.7593 -0.144159 0
67.9406 -0.107722 0
67.7738 -0.0877615 0
68.0767 -0.0921471 0
67.7734 -0.236974 0
68.3219 -0.0653647 0
67.7907 -0.0866236 0
68.0734 -0.21806 0
71.6595 -1.25161 0
67.7766 0.00917121 0
67.7563 0.051456 0
67.7778 0.0233847 0
67.7537 0.127064 0
67.7485 0.0180069 0
67.7627 0.168454 0
67.7591 0.0431235 0
67.7869 0.131566 0
67.7419 0.0272353 0
67.7325 0.133372 0
67.8847 0.127799 0
67.7421 0.914703 0
67.8075 0.0542633 0
67.8109 0.162485 0
67.9123 0.277736 0
72.7667 0.0167588 0
72.7094 0.00129468 0
72.6108 0.049341 0
72.6016 0.0376033 0
72.5499 0.00223312 0
72.4583 0.0463891 0
72.4498 0.0598813 0
72.437 0.0368233 0
72.3952 0.00389312 0
72.3367 0.0647889 0
72.3366 0.0490764 0
72.3076 0.00574556 0
72.2465 0.0589356 0
72.2515 0.0552439 0
72.2472 0.0326845 0
72.2327 0.00700112 0
72.2118 0.0449803 0
72.2166 0.0313295 0
72.2141 0.00762991 0
72.1963 0.0359905 0
72.2057 0.0253509 0
72.2111 0.0130988 0
72.2178 0.00456469 0
72.2206 0.00106684 0
72.2427 -0.0052626 0
72.2704 0.00283177 0
72.2723 -0.0192788 0
72.2778 -0.0269658 0
72.3021 -0.0197955 0
72.3418 0.00265035 0
72.3505 -0.0529969 0
72.3818 -0.0335065 0
72.426 0.00116279 0
72.4429 -0.0719698 0
72.4703 -0.0518393 0
72.5214 -0.100855 0
72.5523 0.00263057 0
72.5813 -0.0715992 0
72.6089 -0.0497428 0
72.6676 0.00072136 0
72.6925 -0.094832 0
72.7995 -0.0567156 0
72.7121 -0.0713896 0
72.791 0.00203948 0
72.8281 -0.0390745 0
72.8177 -0.0692095 0
72.9053 -0.0224633 0
72.8986 -0.0213149 0
72.904 -0.0493419 0
72.9402 -0.0445914 0
72.9771 0.0207514 0
72.9916 0.026906 0
72.9682 -0.00472821 0
72.9853 0.0247192 0
72.9794 0.0656432 0
72.974 0.0373799 0
73.0045 0.0835446 0
72.9569 0.131185 0
72.9557 0.113676 0
72.9735 0.148249 0
72.9109 0.20532 0
72.8737 0.175615 0
72.7693 0.2754 0
72.9002 0.198641 0
72.7126 0.0896595 0
72.8053 0.296971 0
72.6778 0.295154 0
72.7522 0.333536 0
72.5986 0.0975781 0
72.6838 0.354901 0
72.6021 0.414548 0
72.4548 0.241757 0
72.4586 0.250454 0
72.5619 0.355156 0
72.4216 0.443897 0
72.3569 0.181981 0
72.2441 0.371778 0
72.2795 0.240106 0
72.1051 0.0106062 0
72.2533 0.404951 0
72.1753 0.443619 0
72.0085 0.332922 0
71.9736 0.188251 0
72.0937 0.197818 0
72.0029 0.344565 0
71.9224 0.134057 0
71.9085 0.284092 0
71.969 0.0898496 0
71.8592 0.226457 0
71.9142 0.045815 0
71.8517 0.230767 0
71.8405 0.152873 0
71.9406 0.0011853 0
71.8547 0.0423634 0
71.9199 0.0154447 0
71.8871 -0.0539669 0
71.9293 0.0107769 0
71.8326 1.153e-05 0
71.9468 -0.1912 0
72.1009 -0.159954 0
72.1663 -0.253336 0
72.0163 -0.149425 0
72.0022 -0.203374 0
72.1101 -0.116453 0
72.1481 -0.329368 0
72.2223 -0.392907 0
72.4797 -0.281337 0
72.2351 -0.196452 0
72.2207 -0.342115 0
72.3178 -0.442337 0
72.3574 -0.0787499 0
72.6084 -0.50264 0
72.6284 -0.550711 0
72.8658 -0.255598 0
72.6018 -0.278762 0
72.7189 -0.430124 0
72.8097 -0.540764 0
72.6879 -0.0709387 0
72.852 -0.622461 0
73.0383 -0.586361 0
73.0931 -0.306299 0
73.116 -0.402752 0
73.2073 -0.218594 0
73.1898 -0.499551 0
73.118 -0.0531746 0
73.2274 -0.424684 0
73.4376 -0.246446 0
73.1872 -0.0309486 0
73.5101 -0.13162 0
73.513 -0.0281938 0
73.4022 0.0283907 0
73.204 0.0907634 0
73.551 -0.129529 0
73.5901 -0.0565263 0
73.2084 0.0389751 0
73.5817 0.205684 0
73.5171 0.298402 0
73.5147 0.192331 0
73.1909 0.147764 0
73.1375 0.235889 0
73.5331 0.404933 0
73.0431 0.172796 0
73.4033 0.480365 0
73.3443 0.553824 0
73.3254 0.676426 0
72.9485 0.00423779 0
73.0691 0.670701 0
73.2692 0.495243 0
72.9147 0.392777 0
72.7928 0.414158 0
72.9951 0.762021 0
72.8166 0.722953 0
72.7879 0.123128 0
72.7341 0.613083 0
72.7008 0.741138 0
72.6528 0.686105 0
72.4399 0.0271493 0
72.6501 0.439779 0
72.3099 0.536268 0
72.3642 0.181549 0
72.4137 0.162617 0
72.296 0.345062 0
72.2393 0.4558 0
72.4495 0.0451326 0
72.1479 0.199746 0
72.0975 0.11436 0
72.4512 -0.100171 0
72.1268 -0.200494 0
72.2468 0.0714786 0
72.3231 -0.307026 0
72.3158 -0.52052 0
72.2003 -0.291877 0
72.0211 -0.395863 0
72.4323 -0.265133 0
72.1446 -0.679638 0
72.1096 -0.714702 0
72.3021 -1.02981 0
72.6544 -0.0168122 0
72.4166 -0.856828 0
72.3237 -1.17582 0
72.5396 -0.252 0
72.398 -1.30486 0
72.7661 -0.714471 0
72.5019 -1.39321 0
73.0021 -0.398386 0
72.7653 -1.26025 0
72.7021 -1.53961 0
72.896 -0.212228 0
73.0135 -1.62986 0
73.3181 -1.54244 0
73.0735 -1.27777 0
73.1836 -0.701289 0
73.4179 -1.82903 0
73.3236 -0.56188 0
73.43 -0.0804245 0
73.2066 -1.32264 0
73.6304 -1.69039 0
73.8454 -1.86194 0
73.5311 -0.404507 0
73.8812 -1.34835 0
74.2068 -1.38526 0
73.5173 -0.122815 0
74.2822 -1.12227 0
74.297 -1.39453 0
73.8353 -0.991353 0
73.6954 -0.39235 0
73.829 -0.414003 0
74.3839 -1.12999 0
73.6783 -0.00786472 0
74.4482 -1.07954 0
74.5126 -0.851539 0
74.4881 -0.937088 0
73.819 -0.177468 0
74.2522 -0.582733 0
74.3855 -0.42928 0
73.7261 -0.00706794 0
74.3942 -0.375887 0
74.2172 -0.231557 0
74.1454 -0.372707 0
73.8732 -0.190824 0
74.2922 -0.227188 0
73.9673 -0.212725 0
73.7504 -0.0270926 0
74.1763 -0.226683 0
74.1472 -0.139898 0
74.0473 -0.145019 0
73.8402 -0.105735 0
74.0388 -0.210027 0
73.9967 -0.171174 0
73.7807 -0.0501122 0
73.937 -0.19466 0
73.8953 -0.311483 0
74.0559 -0.269097 0
73.7079 -0.00416453 0
73.9149 -0.473899 0
74.0625 -0.190707 0
74.166 -0.22275 0
73.9913 -0.461832 0
74.041 -0.405078 0
74.0544 -0.650832 0
73.8354 -0.0373674 0
74.0165 -0.695188 0
74.2879 -0.515995 0
74.3553 -0.857075 0
73.7572 -0.0126391 0
74.6876 -0.611276 0
74.6954 -0.432616 0
73.3509 0.0498901 0
74.8133 -0.969002 0
75.1195 -0.57084 0
74.0924 0.234295 0
73.7597 0.0918804 0
74.5015 -0.16549 0
75.2839 -0.276695 0
73.477 0.0988755 0
75.363 0.184124 0
75.4225 -0.509195 0
75.443 -0.343703 0
73.2446 0.53347 0
74.7555 0.546433 0
75.6557 0.409139 0
73.1737 0.0892919 0
75.5341 0.726571 0
75.4184 0.956018 0
75.161 2.06625 0
72.168 0.170418 0
75.8539 1.63128 0
74.4242 1.23119 0
73.0186 0.639344 0
73.0688 1.37057 0
75.7755 1.96404 0
75.3726 2.60435 0
72.4656 0.289556 0
75.3316 3.0254 0
72.7947 0.00291844 0
72.8062 -0.00039015 0
72.8354 0.0112344 0
72.8387 0.00823149 0
72.8546 -0.00110705 0
72.8837 0.00973969 0
72.8877 0.00970859 0
72.8945 0.00242699 0
72.9061 -0.00238742 0
72.9179 0.00222798 0
72.9211 -0.0023469 0
72.9281 -0.00411075 0
72.9285 -0.0103925 0
72.9322 -0.015971 0
72.936 -0.0175949 0
72.935 -0.00697673 0
72.9252 -0.0337412 0
72.9295 -0.0330766 0
72.9249 -0.0105525 0
72.8888 -0.0619914 0
72.8928 -0.0665474 0
72.8396 -0.103208 0
72.8949 -0.0450468 0
72.8232 -0.0733938 0
72.7576 -0.12782 0
72.8314 -0.0859389 0
72.743 -0.144734 0
72.7128 -0.114101 0
72.6572 -0.178569 0
72.7338 -0.0930391 0
72.6297 -0.127049 0
72.5503 -0.213418 0
72.6264 -0.0997419 0
72.4585 -0.238078 0
72.4547 -0.22095 0
72.418 -0.164637 0
72.508 -0.123119 0
72.4186 -0.17297 0
72.3256 -0.152568 0
72.3848 -0.114879 0
72.2425 -0.253651 0
72.2807 -0.0955658 0
72.2068 -0.152378 0
72.276 -0.136314 0
72.2046 -0.186245 0
72.1096 -0.170135 0
72.1148 -0.0834101 0
72.1403 -0.157458 0
72.0677 -0.157485 0
72.0757 -0.145166 0
72.0612 -0.0473158 0
72.0651 -0.0648724 0
72.0538 -0.0768409 0
72.0584 -0.0662363 0
72.0832 -0.0183521 0
72.0702 -0.031639 0
72.0989 -6.41411e-05 0
72.1514 0.0573832 0
72.1081 0.0205925 0
72.1634 0.0690638 0
72.1699 0.0906889 0
72.2079 0.0846144 0
72.2563 0.0597551 0
72.2971 0.151741 0
72.1346 0.0157734 0
72.3478 0.191648 0
72.4924 0.264571 0
72.4217 0.209457 0
72.3646 0.117026 0
72.5469 0.286859 0
72.5845 0.244128 0
72.6874 0.114689 0
72.5087 0.236652 0
72.6894 0.264349 0
72.7683 0.286593 0
72.5743 0.0736688 0
72.7239 0.206027 0
72.9344 0.305136 0
72.7756 0.163795 0
72.9822 0.251491 0
73.0923 0.220612 0
72.9714 0.182748 0
73.0286 0.0508461 0
73.115 0.155467 0
73.2054 0.201941 0
73.0291 0.0351652 0
73.2388 0.125294 0
73.0931 0.0989301 0
73.2913 0.0317395 0
73.1303 0.0644134 0
73.2862 0.0163507 0
73.2988 -0.174663 0
73.0998 -0.0324938 0
73.194 -0.0583759 0
73.266 -0.247351 0
73.2016 -0.214589 0
73.1333 -0.0590433 0
73.2503 -0.312264 0
73.2091 -0.4188 0
72.9892 -0.100499 0
72.9876 -0.198138 0
73.0971 -0.433402 0
73.0853 -0.574875 0
73.0329 -0.258317 0
72.9913 -0.584701 0
72.9158 -0.672173 0
72.6337 -0.198507 0
72.8321 -0.374339 0
72.729 -0.761912 0
72.6911 -0.631288 0
72.7644 -0.185275 0
72.645 -0.703323 0
72.5065 -0.693598 0
72.425 -0.232298 0
72.542 -0.605078 0
72.3017 -0.764036 0
72.3054 -0.517947 0
72.519 -0.192194 0
72.2278 -0.620497 0
72.1042 -0.548155 0
72.2782 -0.17684 0
72.1388 -0.337251 0
72.2135 -0.139743 0
72.0923 -0.240498 0
72.2388 -0.207605 0
72.0154 -0.374196 0
71.9856 -0.106276 0
72.1862 -0.0278659 0
72.019 -0.100534 0
72.0382 0.118126 0
72.255 0.0743625 0
72.0631 -0.128435 0
72.085 0.181469 0
72.0762 0.281164 0
72.2442 0.0284856 0
72.116 0.333908 0
72.2873 0.617771 0
72.2987 0.554227 0
72.4309 0.15907 0
72.4857 0.664701 0
72.3472 0.169014 0
72.1752 0.323029 0
72.4291 0.698411 0
72.6775 0.89746 0
72.6964 0.952084 0
72.4007 0.00724307 0
72.9763 1.13085 0
72.9992 1.08103 0
73.0873 0.87104 0
73.0328 0.377094 0
73.2315 0.362653 0
73.1348 1.02738 0
72.7516 0.241825 0
73.4548 1.04976 0
73.4077 1.02861 0
73.4215 0.830291 0
73.1709 0.20583 0
73.6141 0.817958 0
73.9109 0.944445 0
73.4001 0.261997 0
73.4034 0.352121 0
73.7098 0.652057 0
74.0872 0.655491 0
73.254 0.240921 0
74.0867 0.65283 0
74.124 0.465686 0
73.4487 0.0722103 0
74.1176 0.184614 0
74.1373 0.144191 0
73.8846 -0.0607798 0
73.5437 0.0485741 0
73.6626 0.111982 0
74.0519 0.0309507 0
73.544 0.122599 0
74.0096 -0.183954 0
73.9665 -0.243222 0
73.7786 -0.327006 0
73.431 -0.00517494 0
73.701 -0.495492 0
73.6726 -0.567545 0
73.5594 -0.149802 0
73.325 -0.333696 0
73.3978 -0.110424 0
73.5256 -0.526312 0
73.4045 -0.030162 0
73.2722 -0.684552 0
73.2249 -0.612324 0
73.2967 -0.0500893 0
73.0694 -0.425053 0
72.7556 -0.417156 0
72.9333 -0.48487 0
72.9775 -0.0085484 0
72.4699 -0.198014 0
72.4463 -0.188815 0
73.1123 -0.227646 0
72.7589 0.0966268 0
72.9845 -0.0328821 0
72.333 0.11442 0
72.9071 0.0391963 0
72.3099 0.387724 0
72.4068 0.538447 0
72.9619 0.0151768 0
72.5446 0.542249 0
72.3607 1.06129 0
72.4274 1.22724 0
72.9408 0.292696 0
72.4936 1.42206 0
72.6147 1.6506 0
72.6637 0.461298 0
73.0239 1.27383 0
73.0645 0.37229 0
72.8502 1.93598 0
73.1737 0.146806 0
73.0453 2.07943 0
73.2181 2.16426 0
73.0538 0.0839061 0
73.2732 1.87536 0
73.7502 2.48951 0
74.1257 2.47608 0
73.3712 0.425937 0
73.9002 2.36056 0
74.4207 2.6726 0
73.4792 1.63391 0
74.6311 1.69223 0
73.6029 0.383378 0
74.1696 2.35283 0
73.8116 0.164541 0
74.9825 2.65587 0
75.1295 2.3766 0
73.6201 0.123379 0
74.948 1.79423 0
75.4545 2.0218 0
75.8273 1.84978 0
74.2679 0.1791 0
75.997 1.61021 0
76.0978 1.39963 0
74.5605 0.267749 0
76.137 1.43315 0
75.5362 0.580279 0
74.467 0.617157 0
74.1919 0.454592 0
76.2789 1.07284 0
76.1838 0.5043 0
76.5135 0.378819 0
74.2094 0.0101326 0
76.0616 0.00657557 0
76.474 -0.328155 0
74.3675 0.0461399 0
75.8931 -0.0140598 0
76.4582 -0.806442 0
75.5807 -0.518621 0
74.5517 -0.0724762 0
76.3596 -1.07253 0
76.269 -1.34394 0
75.3476 -0.0204877 0
75.217 -1.56037 0
73.9231 -1.39741 0
76.1699 -1.40105 0
73.9289 -0.155967 0
76.0594 -2.06238 0
74.8823 3.59002 0
75.2886 3.00574 0
71.6711 1.0312 0
74.8593 3.62832 0
73.4707 3.58672 0
74.3946 4.12767 0
71.9106 0.38137 0
73.8931 4.39188 0
73.2392 4.51902 0
71.2311 0.544536 0
73.2624 4.73694 0
76.0155 -2.34938 0
74.0566 -0.0833535 0
75.8823 -2.58255 0
75.1926 -2.91092 0
74.7481 -2.48073 0
73.6152 -0.13657 0
75.3066 -3.30742 0
72.51 4.54614 0
74.848 -4.09471 0
73.56 -0.74088 0
74.6948 -3.96769 0
74.0525 -4.60166 0
70.6543 1.38717 0
73.8574 -4.52981 0
74.6136 -2.34879 0
74.2948 -4.07106 0
73.0417 -2.98951 0
72.2715 -0.479385 0
73.6979 -4.15533 0
73.2379 -4.4342 0
72.1551 4.82713 0
73.2564 -4.47705 0
72.803 -0.243061 0
72.6386 -4.7117 0
72.2323 -5.14904 0
71.8796 -0.312865 0
71.5802 -5.27074 0
71.8835 -3.8141 0
70.5663 -0.387074 0
70.9944 -5.36031 0
70.9444 -2.93911 0
71.9063 -2.25136 0
71.3844 -4.58895 0
70.6511 -4.84801 0
72.4044 2.33891 0
70.1049 0.319681 0
71.8541 1.58487 0
70.936 -0.0323052 0
70.3548 -5.22122 0
72.0085 4.63482 0
69.9878 0.233069 0
71.448 3.97854 0
69.8176 -5.19058 0
70.6598 -1.02759 0
69.3336 -3.70053 0
71.6038 5.30038 0
69.3736 1.32948 0
71.5822 5.26337 0
70.0916 4.68593 0
69.4897 0.261938 0
70.6552 4.83259 0
69.6597 -3.87482 0
70.3883 -0.30327 0
69.2833 -5.30511 0
69.3384 -5.12461 0
70.8413 5.14575 0
69.604 5.13174 0
69.1045 0.0226746 0
70.2822 5.1901 0
68.9188 3.39626 0
69.1529 1.52925 0
68.6753 -5.2555 0
69.1851 -0.640838 0
68.9149 -5.15952 0
68.8004 5.45815 0
68.2862 -4.82533 0
68.709 -0.613383 0
68.5331 -1.97995 0
67.5886 -4.59504 0
69.364 -2.43645 0
67.4489 -4.41155 0
68.4656 -0.166321 0
66.8645 -4.22152 0
68.4368 1.9766 0
68.7063 0.300719 0
68.525 4.67448 0
68.3937 0.0806477 0
68.3482 5.42059 0
68.2297 5.18375 0
68.2034 0.139169 0
67.7043 4.61297 0
68.1085 0.105201 0
67.7372 -3.93272 0
68.4693 -0.319293 0
68.8406 3.99727 0
67.7401 0.633439 0
67.5139 4.41621 0
66.8117 -4.22111 0
68.5493 -0.137992 0
65.7202 -3.49707 0
67.7682 -0.316601 0
66.2253 -3.49217 0
68.0397 1.86647 0
67.7813 0.107692 0
68.2141 -3.12288 0
67.7823 -0.0892324 0
65.8332 -3.25929 0
67.0669 4.05891 0
66.86 -2.45698 0
67.777 -0.185859 0
66.0716 -2.73452 0
67.6713 2.31084 0
66.2029 1.70286 0
66.7156 3.57764 0
67.5556 -0.524377 0
65.981 -3.05311 0
67.7008 0.371693 0
66.6538 4.6605 0
67.4065 -1.31933 0
67.7852 -0.0636652 0
65.7848 -2.74603 0
66.5548 4.28009 0
67.704 0.629232 0
66.426 3.46535 0
66.2727 3.42338 0
67.7198 0.357701 0
65.7363 3.12804 0
65.2112 -2.36904 0
67.7518 -0.214798 0
64.9677 -2.38621 0
66.7027 -0.943962 0
67.7767 -0.144473 0
64.6956 -1.4889 0
65.713 3.80264 0
67.6675 0.57415 0
66.5925 2.54693 0
65.074 -1.26904 0
67.6858 -0.183323 0
64.5995 -1.1595 0
64.8846 2.92638 0
67.6962 0.276427 0
65.1443 2.79906 0
65.3745 2.34603 0
67.7862 0.0415389 0
64.8134 2.50166 0
65.5171 -0.580754 0
67.6259 -0.278159 0
64.9817 -0.473627 0
64.1484 -0.127903 0
67.1187 -0.32502 0
64.3243 -0.0345768 0
66.9275 0.992385 0
67.7159 0.105456 0
66.3221 2.00653 0
64.7276 2.07919 0
67.608 0.147036 0
64.2972 1.52367 0
67.3839 0.0495897 0
67.7683 -0.0811892 0
64.2273 0.306123 0
64.5752 0.417416 0
67.7477 -0.0154941 0
66.2117 0.602489 0
64.8484 0.816464 0
67.7584 -0.0299782 0
66.898 -3.41884 0
67.7722 -0.321178 0
67.757 0.114257 0
67.8335 4.76343 0
67.9293 -4.80509 0
69.7263 -0.569077 0
68.9955 0.652905 0
70.135 5.48699 0
67.7032 0.273241 0
65.3728 3.66549 0
64.7979 -1.49425 0
67.7328 -0.156354 0
67.7264 -0.395745 0
67.1876 -2.06694 0
67.7131 0.67047 0
67.826 0.181925 0
67.7356 0.0519028 0
64.6658 1.87273 0
68.351 0.329124 0
67.9046 1.20543 0
68.0164 -0.782413 0
68.7401 -0.403221 0
71.9016 -0.709325 0
71.9084 -5.13703 0
73.4745 4.47753 0
71.7028 0.230592 0
67.561 1.34608 0
68.7888 5.27295 0
67.6799 -4.35592 0
68.2249 -1.32468 0
66.9479 -0.689095 0
65.3833 0.298747 0
66.6084 4.22551 0
67.727 1.47755 0
67.5941 -0.98937 0
65.2725 -2.75152 0
75.7198 -2.97231 0
73.4473 -0.348705 0
72.967 0.311004 0
75.7279 1.17085 0
67.7317 -0.513596 0
67.7809 -0.0352105 0
67.7386 0.139496 0
68.1862 0.557936 0
70.4746 0.417076 0
70.4692 2.47955 0
69.265 -1.16929 0
71.0297 -1.02026 0
69.8996 3.11337 0
71.837 4.9237 0
70.7196 -5.32584 0
70.0116 -1.12733 0
72.3137 0.771879 0
73.3379 2.55612 0
72.2309 -1.6146 0
72.8208 -0.011476 0
74.4259 0.0680115 0
76.5378 0.145023 0
74.4652 -0.953827 0
73.5388 0.00121918 0
73.8397 0.0119655 0
75.1944 2.43895 0
73.9426 -0.32054 0
73.8192 -0.0611297 0
68.1767 -0.830894 0
67.9166 -0.333157 0
67.8829 0.955671 0
68.3146 0.683932 0
67.8144 0.967524 0
67.7659 0.209989 0
67.7793 -0.0871623 0
67.7827 -0.654085 0
73.5397 0.29259 0
74.2929 0.372613 0
74.2384 -0.450842 0
74.1627 -0.0374346 0
66.2555 -0.301645 0
67.756 -0.0840621 0
67.4239 -0.146577 0
67.7508 -0.254862 0
67.7617 0.187015 0
67.6593 0.811309 0
73.3451 2.27513 0
73.2604 0.266846 0
73.7392 -0.0078851 0
74.4308 -0.466819 0
69.5288 -0.0159539 0
69.1383 -1.65996 0
69.8615 1.10859 0
69.1037 0.293129 0
67.5536 2.93806 0
67.2083 5.04321 0
66.8173 -3.80957 0
67.7061 -1.82862 0
68.012 -1.19603 0
67.2912 -1.22759 0
67.6062 3.28358 0
67.7897 1.68857 0
73.8342 -0.0829001 0
73.765 -0.0279183 0
74.2221 0.106769 0
74.8587 1.33702 0
68.4395 -3.23656 0
69.0837 -3.15755 0
69.1437 3.03491 0
69.6309 5.51496 0
68.0922 -2.32536 0
68.7721 -1.34216 0
68.8276 2.07384 0
68.3573 1.10012 0
72.3777 0.872882 0
72.9096 0.119002 0
73.6227 -0.0121661 0
74.0808 -1.52185 0
67.3027 0.947699 0
67.7627 0.0392838 0
73.7741 -0.0617517 0
74.0552 -0.211235 0
73.9904 0.850381 0
73.4417 0.117662 0
68.0826 -0.552349 0
67.8567 -0.763771 0
68.3165 1.25383 0
67.8373 0.591644 0
67.7932 -0.117401 0
67.8184 -0.434167 0
67.7489 0.280504 0
67.7628 0.117236 0
64.9666 1.61529 0
67.024 1.3577 0
72.7345 -1.82365 0
74.9176 -3.73755 0
75.6211 2.3782 0
72.5136 1.10303 0
66.8197 -1.1717 0
65.3009 -1.52748 0
73.1276 -0.0363994 0
73.0934 -0.53558 0
73.4408 0.0228885 0
73.7617 -0.544328 0
73.1947 -1.60791 0
73.0354 -0.202018 0
72.1583 -0.886911 0
72.5408 -0.015812 0
73.7349 -0.177191 0
74.0673 -0.491146 0
72.983 0.525185 0
73.0162 0.0106418 0
67.775 0.17536 0
67.5755 0.521906 0
66.6406 0.668921 0
65.1067 1.02029 0
67.6914 -0.109128 0
67.7601 -0.116548 0
67.3391 0.426999 0
67.2799 -0.249512 0
76.3059 -1.10712 0
74.2513 -0.814534 0
74.4823 0.528114 0
75.152 -0.775361 0
67.7814 -0.0437702 0
67.8155 -0.239033 0
67.759 0.0427467 0
67.8617 0.203254 0
73.3927 -0.274469 0
73.4897 -0.798878 0
72.8888 0.131718 0
73.0343 -0.00519656 0
73.4745 0.186633 0
73.903 0.476831 0
72.0935 0.131912 0
72.3946 -0.0195991 0
67.9401 -0.526547 0
68.3449 -1.23079 0
68.1114 1.18285 0
67.9059 0.97039 0
68.3531 2.04297 0
67.4256 1.49854 0
67.6935 -1.08453 0
67.9723 -1.59318 0
74.8514 0.297943 0
75.3258 1.96812 0
73.9138 -0.497285 0
74.2017 -0.209743 0
67.5228 -0.59081 0
67.5675 -0.744893 0
67.6341 0.91567 0
67.2949 1.152 0
73.7545 1.08015 0
73.0947 0.33536 0
72.6082 0.106802 0
72.4404 0.599335 0
71.8527 2.3851 0
73.4566 3.94872 0
72.591 -5.08124 0
72.2212 -1.94319 0
65.6613 -1.89768 0
67.1754 -2.00146 0
71.3756 -1.80682 0
71.6914 -0.64527 0
70.8654 0.27624 0
72.6917 1.49299 0
65.5717 3.50806 0
66.836 2.17368 0
72.7299 -0.0813507 0
72.7837 -0.908687 0
73.2806 -0.130207 0
73.2268 -0.027444 0
73.6678 -0.175735 0
73.6221 -0.783039 0
73.6303 0.713863 0
72.9951 0.112724 0
70.5419 0.846958 0
69.5134 0.22644 0
69.9871 -0.203843 0
70.3786 -1.83967 0
73.8128 1.04063 0
73.547 2.15038 0
74.1461 -0.186252 0
74.0088 -0.201023 0
69.8343 -2.27811 0
70.4325 -1.06836 0
70.2079 1.63627 0
72.0257 3.49564 0
72.6806 0.804475 0
72.6258 0.125273 0
72.7753 0.135473 0
73.2659 0.638294 0
72.3876 -0.0847184 0
72.4723 -0.0103413 0
73.4577 0.0248869 0
73.8481 0.350216 0
68.6921 0.337241 0
68.5743 0.896035 0
68.6133 -0.652936 0
69.0397 -0.199091 0
69.6576 1.81009 0
68.7229 1.34256 0
68.1833 -1.64165 0
67.7721 -1.62429 0
74.4629 -0.00451462 0
74.3373 -0.0106049 0
73.7087 0.0343202 0
74.0262 -0.0619229 0
68.7332 2.57556 0
68.9933 1.71783 0
68.2752 -0.474896 0
68.2066 -0.175335 0
68.1872 0.194649 0
68.5554 0.604005 0
66.7109 -0.247507 0
67.389 -0.684874 0
76.0111 -1.85333 0
74.3845 -0.99984 0
74.0903 1.55686 0
75.7409 0.545717 0
67.7073 -0.5404 0
67.7977 -0.103723 0
67.7205 0.188665 0
67.7362 0.71324 0
67.8353 0.0719846 0
67.8331 0.489493 0
67.917 -0.206612 0
67.9812 -0.0104558 0
65.9581 0.231584 0
64.2205 0.572364 0
71.6903 1.76964 0
73.8233 1.19597 0
73.2062 -1.4123 0
73.6721 -2.91051 0
67.4296 1.66356 0
67.1667 1.0667 0
67.7869 -0.0117553 0
67.5862 0.0825321 0
69.3155 4.48016 0
67.8414 2.91113 0
68.6391 -2.55377 0
67.9626 -5.00097 0
67.3235 0.782088 0
67.6681 0.412687 0
72.9092 0.685948 0
72.4782 1.40974 0
74.2859 -1.11423 0
73.745 -0.182933 0
72.5962 0.110261 0
72.4153 -0.00247037 0
73.4034 0.084612 0
73.4189 0.869599 0
74.3319 -0.716585 0
74.5742 -0.0217885 0
75.2762 0.541303 0
76.369 0.775188 0
67.4332 0.263324 0
66.8798 -0.836998 0
67.768 1.12888 0
67.8714 1.46099 0