# vtk DataFile Version 3.0
Unstructured Grid for Triangles
ASCII
DATASET UNSTRUCTURED_GRID
POINTS 29612 DOUBLE
-0.000272397 1.23686e-05 0
-0.000295789 9.5838e-06 0
-0.000277865 -3.1235e-06 0
0.002024 0.0005 0
0.00203975 0.00049875 0
0.00205 0.0005 0
0.00203975 -0.00049875 0
0.002024 -0.0005 0
0.00205 -0.0005 0
0.0020295 0.0004975 0
0.0020295 -0.0004975 0
0.00201925 0.00049625 0
0.00201925 -0.00049625 0
-0.000529747 -0.000479887 0
-0.00055 -0.0005 0
-0.000524 -0.0005 0
-0.000505983 -0.000484325 0
-0.000498 -0.0005 0
-0.000472 -0.0005 0
-0.000483864 -0.000487761 0
-0.000446 -0.0005 0
-0.000459 -0.000484239 0
-0.000429453 -0.000424878 0
-0.000447486 -0.000420717 0
-0.000441829 -0.000436609 0
-0.000512578 -0.000462101 0
-0.000493078 -0.000453594 0
-0.00050706 -0.000439006 0
-0.000419243 -0.000477545 0
-0.000440307 -0.000471837 0
-0.00043691 -0.000486724 0
-0.000516129 -0.000420948 0
-0.000495355 -0.000415432 0
-0.000511646 -0.00040128 0
-0.000394697 -0.000481197 0
-0.000406302 -0.000455143 0
-0.000537257 -0.000388197 0
-0.000531099 -0.000407297 0
-0.000523982 -0.000388328 0
-0.000370063 -0.000472956 0
-0.000368 -0.0005 0
-0.00035308 -0.000485302 0
-0.0005072 -0.00037867 0
-0.000485506 -0.000383975 0
-0.000490949 -0.000359622 0
-0.000337127 -0.000484331 0
-0.000316 -0.0005 0
-0.000326495 -0.00047415 0
-0.00055 -0.00035 0
-0.000531201 -0.000370361 0
-0.000528367 -0.000346817 0
-0.000363898 -0.000448809 0
-0.000383315 -0.000460336 0
-3.26269e-05 -0.000415503 0
-5.99662e-05 -0.000409556 0
-5.46944e-05 -0.000429488 0
-0.000529747 0.000479887 0
-0.00055 0.0005 0
-0.00055 0.000475 0
-0.00055 0.00045 0
-0.000534834 0.000429171 0
-0.000526943 0.000442611 0
-0.000534026 0.000460176 0
-0.000531099 0.000407297 0
-0.000511672 0.000401178 0
-0.000516129 0.000420948 0
-0.000524 0.0005 0
-0.000505983 0.000484325 0
-0.000531201 0.000370361 0
-0.0005072 0.00037867 0
-0.000523982 0.000388328 0
-0.00048341 0.000469132 0
-0.000483679 0.000487539 0
-0.000528367 0.000346817 0
-0.00055 0.000325 0
-0.000525657 0.000328474 0
-0.000498 0.0005 0
-0.000530382 0.0003125 0
-0.000419243 0.000477545 0
-0.000440015 0.00047335 0
-0.000425917 0.000463678 0
-0.000435138 0.000262661 0
-0.000414982 0.000274462 0
-0.000435654 0.000285217 0
-0.000459 0.000484239 0
-0.000436852 0.000487027 0
-0.000446 0.0005 0
-0.000533308 0.000292503 0
-0.00055 0.000275 0
-0.000523377 0.000276953 0
-0.000425282 0.000446352 0
-0.000409368 0.000435728 0
-0.000406302 0.000455143 0
0.002009 0.000495 0
0.001998 0.0005 0
0.00199875 0.00049375 0
0.0019885 0.0004925 0
0.001972 0.0005 0
0.00197825 0.00049125 0
0.001968 0.00049 0
0.00195775 0.00048875 0
0.001946 0.0005 0
0.0019475 0.0004875 0
0.00193725 0.00048625 0
0.00192 0.0005 0
0.001927 0.000485 0
0.00191675 0.00048375 0
0.0019065 0.0004825 0
0.001894 0.0005 0
0.00189625 0.00048125 0
0.001886 0.00048 0
0.001868 0.0005 0
0.00187575 0.00047875 0
0.0018655 0.0004775 0
0.00185515 0.00048575 0
0.001842 0.0005 0
0.001845 0.000475 0
0.00185525 0.00047625 0
0.00182564 0.0004829 0
0.001816 0.0005 0
0.0018245 0.0004725 0
0.00183475 0.00047375 0
0.00181425 0.00047125 0
0.00180295 0.000482657 0
0.00179 0.0005 0
0.00179375 0.00046875 0
0.001804 0.00047 0
0.00178168 0.000480619 0
0.001764 0.0005 0
0.00177325 0.00046625 0
0.0017835 0.0004675 0
0.00176428 0.000476631 0
0.001763 0.000465 0
0.001738 0.0005 0
0.001751 0.000484164 0
0.00175275 0.00046375 0
0.00174025 0.000475632 0
0.001712 0.0005 0
0.00172615 0.000478449 0
0.001722 0.00046 0
0.00173225 0.00046125 0
0.0017015 0.0004575 0
0.00171243 0.00047381 0
0.00169554 0.000479999 0
0.001686 0.0005 0
0.00167507 0.000479751 0
0.00168498 0.000464861 0
0.00166 0.0005 0
0.0016558 0.000471459 0
0.00167135 0.000462887 0
0.001681 0.000455 0
0.0016605 0.0004525 0
0.00167075 0.00045375 0
0.00164059 0.000461599 0
0.0016394 0.000479551 0
0.00162881 0.00046615 0
0.00162975 0.00044875 0
0.00165025 0.00045125 0
0.00164 0.00045 0
0.00161754 0.000458641 0
0.00161722 0.000478101 0
0.00159956 0.000458294 0
0.00160925 0.00044625 0
0.0016195 0.0004475 0
0.00157667 0.000460322 0
0.00158875 0.00044375 0
0.00159194 0.000480155 0
0.001599 0.000445 0
0.0015785 0.0004425 0
0.00155808 0.000456757 0
0.00155647 0.000476701 0
0.00154059 0.000466642 0
0.00153756 0.000450083 0
0.00154839 0.000450446 0
0.00156825 0.00044125 0
0.00151954 0.000480508 0
0.00154052 0.00048477 0
0.00153 0.0005 0
0.00154775 0.00043875 0
0.00152142 0.000456625 0
0.00152821 0.000445753 0
0.0015375 0.0004375 0
0.001504 0.0005 0
0.00149644 0.000485168 0
0.00151787 0.000443178 0
0.00152725 0.00043625 0
0.00150675 0.00043375 0
0.001517 0.000435 0
0.00148119 0.000450887 0
0.00148072 0.000475756 0
0.00146584 0.000463516 0
0.00150008 0.00046396 0
0.00149351 0.00044543 0
0.0015061 0.000446252 0
0.001476 0.00043 0
0.00148625 0.00043125 0
0.00146492 0.000482975 0
0.00144888 0.000473562 0
0.00146676 0.000444259 0
0.00145255 0.000453656 0
0.00145652 0.000438669 0
0.00141401 0.000479821 0
0.001426 0.0005 0
0.0014 0.0005 0
0.00144374 0.000438862 0
0.0014555 0.0004275 0
0.001435 0.000425 0
0.00144525 0.00042625 0
0.00142746 0.000438121 0
0.00141288 0.000443191 0
0.00141707 0.000432778 0
0.0013921 0.000438992 0
0.00140355 0.00045932 0
0.00138302 0.00045922 0
0.00142912 0.000458869 0
0.00140592 0.000430037 0
0.0014145 0.0004225 0
0.00136458 0.00045869 0
0.00137106 0.00044063 0
0.001394 0.00042 0
0.00138259 0.000428915 0
0.00137484 0.000477094 0
0.00139166 0.000478902 0
0.0013586 0.000478984 0
0.00133449 0.000478649 0
0.00134717 0.000461848 0
0.00137256 0.000425134 0
0.00135323 0.000424541 0
0.00136325 0.00041625 0
0.00136122 0.00042876 0
0.00131206 0.000447284 0
0.00133168 0.000456738 0
0.00131773 0.000465243 0
0.00134756 0.000440343 0
0.00132747 0.000436463 0
0.00133483 0.000426786 0
0.00131081 0.00041867 0
0.00132382 0.000422815 0
0.00131507 0.00043122 0
0.00131059 0.000480123 0
0.0013325 0.0004125 0
0.0012915 0.0004075 0
0.0012982 0.000418199 0
0.00128915 0.000426216 0
0.00126366 0.000447574 0
0.00127331 0.000430908 0
0.00128781 0.000444872 0
0.00125336 0.000428376 0
0.00130218 0.000431077 0
0.00127894 0.000416344 0
0.00124774 0.000469608 0
0.00127668 0.000464148 0
0.00126591 0.00048331 0
0.00126722 0.000418415 0
0.00125768 0.000411931 0
0.00124326 0.000413546 0
0.0012505 0.0004025 0
0.00122408 0.000450118 0
0.00120276 0.000447432 0
0.0012139 0.000432235 0
0.00124336 0.000444132 0
0.00123056 0.000427595 0
0.00122977 0.000409049 0
0.0012185 0.000469217 0
0.00122676 0.000485947 0
0.00120525 0.000486094 0
0.00121479 0.000413153 0
0.00119547 0.000424221 0
0.00120249 0.000407448 0
0.00119925 0.00039625 0
0.00119346 0.000406114 0
0.00117479 0.000447279 0
0.00114726 0.000445259 0
0.0011571 0.000427814 0
0.00119443 0.000466611 0
0.00117447 0.000421596 0
0.00118421 0.00040752 0
0.00117409 0.000404437 0
0.00116775 0.000470073 0
0.001179 0.0004855 0
0.00115473 0.000484802 0
0.0011685 0.0003925 0
0.00117875 0.00039375 0
0.00115454 0.000400551 0
0.001148 0.00039 0
0.00115825 0.00039125 0
0.00111703 0.000423398 0
0.00113786 0.000426731 0
0.00112589 0.000443871 0
0.00113234 0.000406671 0
0.00114754 0.000413371 0
0.001106 0.000442326 0
0.00109703 0.000424261 0
0.0011275 0.0003875 0
0.00113775 0.00038875 0
0.00110211 0.000480875 0
0.00108244 0.000471951 0
0.00109312 0.000458413 0
0.00111755 0.000399116 0
0.0010944 0.000392972 0
0.00110415 0.000405876 0
0.00108839 0.000407536 0
0.00106472 0.000476905 0
0.00107274 0.000457868 0
0.00108011 0.000392415 0
0.00106885 0.000404365 0
0.00106625 0.000388708 0
0.00105286 0.000419254 0
0.00105055 0.000395469 0
0.00104215 0.000439764 0
0.00106346 0.000440629 0
0.00100945 0.000451249 0
0.00102825 0.00045614 0
0.00101189 0.000468452 0
0.00107625 0.00038125 0
0.00105575 0.00037875 0
0.001066 0.00038 0
0.00103352 0.000476905 0
0.00101803 0.00048465 0
0.00103685 0.000389398 0
0.0010245 0.00038825 0
0.00103525 0.00037625 0
0.00101092 0.000399779 0
0.00101267 0.000382619 0
0.00101382 0.00042025 0
0.00103187 0.000405286 0
0.00103359 0.000424605 0
0.000987383 0.00045447 0
0.000999411 0.000435161 0
0.0009744 0.000433145 0
0.0010045 0.0003725 0
0.00101475 0.00037375 0
0.000970845 0.000465215 0
0.000952614 0.000467664 0
0.000961768 0.000449944 0
0.00099729 0.000387704 0
0.000978901 0.00039598 0
0.000985823 0.000381492 0
0.000962289 0.000393709 0
0.000974259 0.000381279 0
0.00097375 0.00036875 0
0.000963045 0.000376631 0
0.000958 0.0005 0
0.000932 0.0005 0
0.000947542 0.00048457 0
0.000949675 0.000385245 0
0.000936214 0.000389472 0
0.000940006 0.000374906 0
0.000966411 0.000412573 0
0.000944241 0.000407079 0
0.000903569 0.000424993 0
0.000921701 0.000402409 0
0.000927439 0.000427744 0
0.000889795 0.000409067 0
0.000903071 0.00040248 0
0.000925447 0.000377721 0
0.00093275 0.00036375 0
0.000907708 0.000387127 0
0.000911303 0.000370839 0
0.000911933 0.000455145 0
0.000930678 0.000473279 0
0.000911886 0.000482603 0
0.000887724 0.000388076 0
0.000899595 0.000375116 0
0.000902 0.00036 0
0.000889241 0.00036954 0
0.000836977 0.000459472 0
0.000836223 0.000483578 0
0.000820467 0.000474142 0
0.000871227 0.000403557 0
0.000861 0.000355 0
0.000868368 0.000365714 0
0.00085484 0.00036588 0
0.000847735 0.000402845 0
0.000823121 0.000421599 0
0.000826582 0.000398147 0
0.000846943 0.00042454 0
0.000838832 0.000378613 0
0.000835569 0.000363808 0
0.000844098 0.00036291 0
0.00085075 0.00035375 0
0.000851465 0.000477164 0
0.00083025 0.00035125 0
0.000822824 0.000368659 0
0.00081446 0.000357362 0
0.000805884 0.000371794 0
0.000753471 0.000477524 0
0.000738313 0.000473927 0
0.000739102 0.000461526 0
0.00079826 0.000358588 0
0.000788607 0.000376287 0
0.000781733 0.000357987 0
0.000816783 0.000384471 0
0.000807975 0.000404095 0
0.000752138 0.000404775 0
0.000767682 0.000417043 0
0.000749617 0.000421803 0
0.000752903 0.000384008 0
0.000738293 0.000393136 0
0.000772614 0.000394048 0
0.00076863 0.000371878 0
0.000765995 0.000354121 0
0.000779 0.000345 0
0.00071811 0.000453059 0
0.000738069 0.000437967 0
0.000752085 0.000365972 0
0.000728123 0.000374583 0
0.000741845 0.000354664 0
[...]
CELL_DATA 58684
VECTORS velocity DOUBLE
65.2596 0.29275 0
72.3431 -0.000178529 0
73.126 -0.000214937 0
72.3285 -0.000510965 0
73.097 -0.00183047 0
72.3215 0.00283984 0
73.0702 -0.0142324 0
67.7896 -0.00346901 0
67.7928 -0.0239893 0
67.8578 -0.00293494 0
67.9254 -0.00431192 0
67.955 -0.292754 0
67.8098 -0.103408 0
68.0073 -0.090368 0
67.7979 -0.177085 0
68.1325 -0.117728 0
67.7913 -0.121058 0
68.3521 -0.103826 0
67.828 -0.286805 0
68.6854 -0.0682673 0
67.8055 -0.122983 0
68.3402 -0.252564 0
72.4036 -1.17517 0
67.7842 0.0112398 0
67.7773 0.048921 0
67.7845 0.0245544 0
67.7943 0.120617 0
67.7875 0.0191042 0
67.7929 0.158638 0
67.8357 0.0368484 0
67.8001 0.129317 0
67.8121 0.0248693 0
67.7562 0.129706 0
67.9978 0.095196 0
67.8233 0.68267 0
67.9242 0.0424901 0
67.8134 0.15361 0
68.0408 0.215412 0
72.3202 0.00262385 0
72.3193 7.54191e-05 0
72.3208 -0.00257217 0
72.3218 -0.00143441 0
72.33 -0.000327181 0
72.3456 -0.00852209 0
72.3488 -0.0124284 0
72.3521 -0.00991907 0
72.3694 -0.000473452 0
72.3917 -0.0228648 0
72.3936 -0.0203722 0
72.414 -0.00167839 0
72.4537 -0.0338081 0
72.4575 -0.0385424 0
72.4638 -0.0241005 0
72.4878 -0.00290178 0
72.523 -0.0500542 0
72.5227 -0.0372574 0
72.5477 -0.00529938 0
72.6057 -0.068582 0
72.6055 -0.0616995 0
72.612 -0.0352841 0
72.6484 -0.00168638 0
72.6708 -0.0693791 0
72.6922 -0.0408391 0
72.7314 -0.00243207 0
72.7573 -0.0694907 0
72.7619 -0.0583364 0
72.7833 -0.0413702 0
72.7857 -0.00187624 0
72.8016 -0.0425287 0
72.8143 -0.027149 0
72.8173 -0.00127231 0
72.8249 -0.0226798 0
72.8311 -0.0118572 0
72.8297 -0.00744379 0
72.8215 0.000394597 0
72.824 0.0233657 0
72.8112 0.0141792 0
72.7895 0.00343113 0
72.7884 0.0679238 0
72.7325 0.0724572 0
72.7831 0.0646225 0
72.7051 0.00534059 0
72.6681 0.0671104 0
72.7165 0.118886 0
72.5518 0.0946657 0
72.6096 0.128757 0
72.6206 0.159121 0
72.5572 0.209744 0
72.4297 0.153983 0
72.3448 0.203615 0
72.494 0.17424 0
72.391 0.25411 0
72.2825 0.19821 0
72.2914 0.19655 0
72.2602 0.273464 0
72.0813 0.23293 0
72.1767 0.211049 0
72.1283 0.277619 0
72.0307 0.296843 0
71.9971 0.206291 0
71.8964 0.186393 0
71.9931 0.221214 0
71.8723 0.0528197 0
71.8824 0.203971 0
71.7993 0.166721 0
71.8386 0.191443 0
71.811 0.0332387 0
71.7981 0.16369 0
71.753 0.144313 0
71.7554 0.00343562 0
71.7556 0.037396 0
71.7689 0.0793586 0
71.7189 0.0182475 0
71.7582 -0.0297843 0
71.7478 -0.0439303 0
71.7587 -0.0376976 0
71.8614 -0.00584605 0
71.7085 -0.088599 0
71.7343 -0.152603 0
71.8278 -0.181708 0
71.9411 -0.19355 0
71.8639 -0.120118 0
71.8322 -0.253254 0
72.0468 -0.212778 0
71.9494 -0.33818 0
71.9964 -0.114967 0
72.0033 -0.297746 0
72.1995 -0.115889 0
72.0786 -0.372124 0
72.1772 -0.474642 0
72.4346 -0.252197 0
72.336 -0.381397 0
72.306 -0.170493 0
72.506 -0.487968 0
72.3628 -0.130133 0
72.3822 -0.508725 0
72.6998 -0.498058 0
72.7602 -0.297394 0
72.7965 -0.333665 0
72.6669 -0.413285 0
72.7766 -0.414232 0
72.6405 -0.158482 0
72.9351 -0.409716 0
73.0193 -0.390857 0
73.0047 -0.112912 0
72.7968 -0.136452 0
72.9878 -0.298761 0
73.02 -0.322957 0
72.8361 -0.0363897 0
73.1693 -0.16843 0
73.2022 -0.10217 0
73.0014 0.071982 0
72.8901 -0.0401844 0
73.1832 0.00471446 0
73.189 0.00856909 0
72.9009 0.01128 0
73.212 0.0603318 0
73.1431 0.218584 0
72.8912 0.236207 0
73.0901 0.243203 0
72.8093 0.325141 0
73.0903 0.377469 0
72.6787 0.12102 0
73.0843 0.384923 0
72.9023 0.48178 0
72.5636 0.148059 0
72.7007 0.635215 0
72.5669 0.551514 0
72.502 0.310547 0
72.2445 0.201225 0
72.7253 0.654102 0
72.6123 0.735432 0
72.2634 0.0999135 0
72.4025 0.651055 0
72.2273 0.618138 0
72.3842 0.428836 0
72.1386 0.195764 0
72.1006 0.227668 0
72.1785 0.687676 0
72.0186 0.0821089 0
72.0002 0.475733 0
71.9572 0.323581 0
71.9544 0.396103 0
72.0053 -0.000160246 0
71.8308 0.138357 0
71.9518 0.17669 0
71.919 -0.0652571 0
71.944 -0.19388 0
71.7571 0.0552302 0
71.7583 -0.0688126 0
71.9768 -0.0172462 0
71.7726 -0.249017 0
71.8078 -0.325462 0
71.8327 -0.327751 0
72.2641 -0.148388 0
71.9321 -0.324653 0
71.9768 -0.668091 0
72.2934 -0.590216 0
72.1507 -0.47891 0
72.1333 -0.871572 0
72.0591 -0.797915 0
72.2541 -0.118079 0
72.2868 -1.06349 0
72.3697 -0.986555 0
72.9559 -0.160445 0
72.62 -1.18442 0
72.3784 -0.693494 0
72.9525 -0.649433 0
73.0664 -0.857758 0
72.8017 -1.03254 0
72.7957 -1.29458 0
73.0269 -0.360106 0
73.2533 -1.13598 0
73.1409 -1.43748 0
73.6431 -1.2681 0
73.3371 -0.0042513 0
73.4226 -0.947886 0
73.6532 -1.25256 0
73.2177 -0.243987 0
73.7885 -1.25983 0
73.7939 -0.514525 0
73.8844 -1.32081 0
73.8453 -0.166543 0
74.158 -0.763682 0
74.1126 -0.971054 0
73.6303 -0.105645 0
74.3996 -0.873794 0
74.4706 -0.489432 0
74.1017 -0.550962 0
74.0506 -0.223028 0
74.5714 -0.463864 0
74.0796 -0.113985 0
74.0328 -0.0198731 0
74.3508 -0.356564 0
74.625 -0.276813 0
74.6019 -0.244236 0
74.1429 -0.0546737 0
74.4673 -0.0470588 0
74.4712 0.0796849 0
74.1064 -0.0305756 0
74.3565 0.149145 0
74.4494 0.212838 0
74.3352 0.0318795 0
74.2183 -0.0619419 0
74.2695 -0.0628412 0
74.3293 0.26065 0
74.2861 -0.000254227 0
74.2341 0.33552 0
74.1284 0.218437 0
74.1655 0.297281 0
74.3958 -0.16414 0
74.216 -0.000522962 0
74.0069 -0.166311 0
74.468 -0.00317398 0
73.9497 -0.133044 0
74.1198 -0.507082 0
74.2821 -0.23053 0
74.4591 -0.233686 0
73.9648 -0.426374 0
74.4868 -0.303452 0
74.7099 -0.0676101 0
74.2608 -0.612501 0
74.0116 -0.854478 0
74.1124 -0.982128 0
74.7781 -0.266448 0
74.6296 -1.08166 0
74.1855 -1.18361 0
74.8886 -0.160795 0
74.3863 -1.53295 0
74.6724 -1.76432 0
75.0182 -0.998004 0
74.9953 -0.00596901 0
75.0408 -1.94742 0
75.3396 -0.625928 0
75.5584 -0.707909 0
75.1888 -1.74243 0
75.1853 -1.34789 0
75.7291 -1.89961 0
75.2208 -0.203427 0
75.6038 -2.10123 0
75.9323 -1.33066 0
76.3164 -1.81881 0
75.0708 -0.0564494 0
76.7612 -1.0947 0
76.6773 -0.78882 0
74.7103 0.0468896 0
76.9769 -1.70256 0
77.2993 -0.970046 0
75.6132 0.175071 0
75.181 0.00808449 0
76.2459 -0.483712 0
77.3977 -0.425317 0
74.848 0.100847 0
77.2481 0.348876 0
77.496 -0.538747 0
77.5032 -0.286576 0
74.5331 0.601143 0
76.4008 0.738303 0
77.4391 0.683622 0
74.4715 0.0929784 0
77.2578 1.12379 0
77.1423 1.26832 0
76.5241 2.56683 0
73.1806 0.191007 0
77.3322 2.17055 0
75.7886 1.50821 0
74.238 0.728802 0
74.1857 1.5806 0
77.1795 2.53787 0
76.5435 3.13415 0
73.5201 0.325613 0
76.4332 3.64678 0
73.0583 -0.00617304 0
73.0409 -0.000535383 0
72.9929 -0.023841 0
72.9885 -0.0250574 0
72.9567 -0.0011242 0
72.8859 -0.0344122 0
72.8794 -0.0470646 0
72.868 -0.0364247 0
72.8237 -0.00306695 0
72.759 -0.0668312 0
72.7566 -0.051504 0
72.7204 -0.00459687 0
72.6267 -0.0808465 0
72.626 -0.0863738 0
72.6156 -0.0595086 0
72.5704 -0.00732024 0
72.5019 -0.104251 0
72.5018 -0.0813863 0
72.4614 -0.0104324 0
72.3578 -0.125664 0
72.3596 -0.115877 0
72.2634 -0.143427 0
72.3502 -0.0647144 0
72.2252 -0.0809463 0
72.123 -0.12216 0
72.2241 -0.0757115 0
72.1109 -0.101907 0
72.0813 -0.0747091 0
72.0495 -0.104766 0
72.1194 -0.0663457 0
72.0274 -0.0574784 0
71.9996 -0.083099 0
72.0362 -0.0499826 0
71.9782 -0.0523447 0
71.9746 -0.0309667 0
71.9708 -0.0228699 0
71.9857 -0.0354227 0
71.9728 -0.00673541 0
71.9769 0.0117846 0
71.9752 -0.0039001 0
72.0052 0.0641743 0
72.0099 0.036334 0
72.0245 0.0529586 0
72.0056 0.0307766 0
72.0377 0.0931693 0
72.1216 0.130445 0
72.1657 0.083297 0
72.1081 0.124735 0
72.204 0.160633 0
72.2141 0.192626 0
72.3183 0.106453 0
72.2771 0.139433 0
72.3594 0.188593 0
72.4473 0.281444 0
72.4565 0.131348 0
72.4984 0.208611 0
72.5605 0.291238 0
72.5946 0.153115 0
72.4953 0.208044 0
72.6612 0.302924 0
72.662 0.28114 0
72.6821 0.146744 0
72.7529 0.0955249 0
72.7792 0.196967 0
72.5407 0.089154 0
72.8528 0.210772 0
72.9577 0.167826 0
72.892 0.175252 0
72.8354 0.115249 0
72.9735 0.124606 0
72.9904 0.100432 0
72.9098 -0.0335623 0
72.9166 0.0984207 0
73.0046 0.00458124 0
73.0121 -0.0453859 0
72.89 0.0241424 0
72.9471 -0.0431463 0
72.9975 -0.148383 0
72.9228 -0.034217 0
72.9816 -0.139132 0
72.9058 -0.29304 0
72.8792 -0.189826 0
72.711 -0.0853053 0
72.8432 -0.292602 0
72.8175 -0.317504 0
72.6145 -0.0858914 0
72.7265 -0.420424 0
72.7467 -0.291763 0
72.5951 -0.353075 0
72.6716 -0.217427 0
72.5709 -0.498292 0
72.3258 -0.585971 0
72.298 -0.128942 0
72.4067 -0.385834 0
72.2043 -0.59846 0
72.2472 -0.39976 0
72.3656 -0.178222 0
72.132 -0.511283 0
72.0585 -0.478659 0
72.0794 -0.0938636 0
71.9964 -0.151483 0
71.9443 -0.316155 0
71.904 -0.445448 0
72.0717 -0.264993 0
71.8284 -0.327581 0
71.796 -0.272767 0
71.8743 -0.0309891 0
71.8522 -0.146894 0
71.7562 -0.129791 0
71.7759 -0.0611763 0
71.9161 -0.0685994 0
71.7693 -0.000127851 0
71.7237 0.118012 0
71.9104 0.0727557 0
71.7896 0.0400622 0
71.8184 0.269788 0
71.8431 0.258644 0
71.8742 0.00831312 0
71.835 0.344238 0
71.9933 0.593031 0
72.0048 0.119773 0
71.9918 0.510315 0
72.1631 0.213547 0
72.1346 0.575719 0
72.1231 0.267475 0
72.168 0.736174 0
72.3393 0.791096 0
72.2979 0.190167 0
72.3174 0.774804 0
72.5838 0.914493 0
72.5651 0.185444 0
72.2891 0.618739 0
72.5724 0.733447 0
72.7318 0.868907 0
72.5414 0.124108 0
72.7804 0.739055 0
73.0931 0.889377 0
73.0219 0.651951 0
72.8234 0.176522 0
73.204 0.555751 0
72.7228 0.254901 0
72.8165 0.698667 0
73.2044 0.720921 0
73.4541 0.61362 0
73.4462 0.526383 0
72.7751 0.0110859 0
73.6307 0.392128 0
73.6524 0.303212 0
73.4911 0.0631832 0
73.222 0.0234857 0
73.2337 -0.0492009 0
73.6167 0.126866 0
73.0673 0.123384 0
73.7243 -0.122805 0
73.6291 -0.113265 0
73.4564 -0.207691 0
73.0908 -0.0490015 0
73.5985 -0.368001 0
73.4917 -0.611649 0
73.1086 -0.186812 0
73.2008 -0.149331 0
73.3368 -0.48326 0
73.3083 -0.778693 0
73.1619 -0.0461885 0
73.2103 -0.864443 0
73.1521 -0.826519 0
72.9149 -0.106242 0
72.877 -0.919763 0
72.811 -0.846926 0
72.69 -0.519172 0
72.8308 -0.196046 0
72.8749 -0.250922 0
72.8574 -0.744542 0
72.8983 -0.165137 0
72.5698 -0.824241 0
72.4833 -0.630697 0
72.6028 -0.370246 0
72.7565 -0.0511158 0
72.32 -0.322224 0
72.3255 -0.234797 0
72.5921 -0.118133 0
72.567 0.0586932 0
72.641 -0.0398397 0
72.3083 -0.0538191 0
72.6948 -0.0767404 0
72.3213 0.23952 0
72.3004 0.340802 0
72.7371 -0.00923526 0
72.4929 0.556851 0
72.5243 0.878437 0
72.5073 0.759517 0
73.0526 0.179729 0
72.8579 1.23862 0
72.9409 1.41537 0
72.6563 0.420405 0
73.1554 1.10657 0
72.9208 0.326032 0
73.3558 1.77067 0
73.3524 0.152811 0
73.4628 1.84152 0
73.5301 1.81775 0
73.1303 0.107617 0
73.4814 1.63288 0
74.1798 2.12746 0
74.4126 2.17031 0
73.96 0.483641 0
74.5731 2.14674 0
74.7096 2.35375 0
73.5446 1.16038 0
74.9246 1.46469 0
74.2866 0.493953 0
75.0748 2.31431 0
74.429 0.177613 0
75.38 2.14077 0
75.5673 2.06899 0
74.1168 0.126134 0
75.2984 1.72714 0
76.0151 1.77732 0
76.267 1.6277 0
74.8573 0.370663 0
76.0447 1.56075 0
76.3933 1.42621 0
75.5298 1.4431 0
76.2219 0.863014 0
75.0846 0.277245 0
76.1354 1.37666 0
75.2421 0.108781 0
76.6006 1.1686 0
76.6706 0.947095 0
75.0341 0.0984065 0
76.4119 0.636616 0
76.7015 0.579238 0
76.7612 0.407442 0
75.5025 0.0369571 0
76.7397 0.204921 0
76.7536 0.150123 0
75.6488 0.0115472 0
76.7115 0.0822193 0
76.3215 -0.111157 0
75.7838 0.198132 0
75.5714 0.21054 0
76.6742 -0.0794976 0
76.6149 -0.250474 0
76.7127 -0.333249 0
75.4024 0.00307484 0
76.4645 -0.47738 0
76.665 -0.603921 0
75.4672 -0.0205822 0
76.4112 -0.476668 0
76.6658 -0.821564 0
76.1064 -0.721205 0
75.4928 -0.249491 0
76.6214 -0.974994 0
76.6131 -1.1491 0
76.0947 -0.40014 0
75.794 -1.39463 0
74.6533 -1.30005 0
76.5259 -1.24122 0
74.7642 -0.180776 0
76.5592 -1.65873 0
75.8706 4.17016 0
76.3547 3.59133 0
72.4811 1.14073 0
75.8256 4.16315 0
74.3034 4.01055 0
75.2612 4.6776 0
72.8276 0.425647 0
74.6702 4.89212 0
73.9343 4.94533 0
71.9861 0.596668 0
73.9299 5.22143 0
76.5425 -1.90911 0
74.934 -0.109422 0
76.4713 -2.11204 0
75.8651 -2.46836 0
75.4299 -2.13684 0
74.4204 -0.128924 0
76.0423 -2.77991 0
73.1343 4.91499 0
75.716 -3.53242 0
74.3098 -0.705961 0
75.5699 -3.46502 0
74.9854 -4.07863 0
71.2514 1.49308 0
74.8064 -4.07789 0
75.3135 -2.07804 0
75.1927 -3.62648 0
73.8628 -2.74957 0
73.0217 -0.454228 0
74.5933 -3.76491 0
74.1584 -4.09323 0
72.7162 5.19073 0
74.1811 -4.09944 0
73.5519 -0.228744 0
73.5582 -4.40488 0
73.2065 -4.83141 0
72.6161 -0.293314 0
72.5536 -5.02633 0
72.7353 -3.5912 0
71.2596 -0.370861 0
71.9783 -5.1491 0
71.7074 -2.82791 0
72.6766 -2.10407 0
72.2689 -4.381 0
71.533 -4.69427 0
73.2118 2.60156 0
70.6157 0.334488 0
72.6813 1.76113 0
71.6368 -0.0272868 0
71.2983 -5.08986 0
72.5353 4.94343 0
70.4674 0.244147 0
71.988 4.23729 0
70.7356 -5.09954 0
71.3625 -0.987455 0
70.0931 -3.69789 0
72.0548 5.63628 0
69.7216 1.33842 0
72.0283 5.57395 0
70.4689 4.84606 0
69.8829 0.266819 0
71.0307 5.0319 0
70.4497 -3.79462 0
71.0577 -0.292514 0
70.168 -5.2389 0
70.2086 -5.08148 0
71.2463 5.38201 0
69.9301 5.26734 0
69.4232 0.0216398 0
70.6521 5.38345 0
69.1933 3.38751 0
69.4637 1.52337 0
69.5369 -5.23462 0
69.7631 -0.659433 0
69.7747 -5.13897 0
69.0655 5.54255 0
69.092 -4.84524 0
69.2032 -0.64736 0
69.0682 -2.08259 0
68.339 -4.6952 0
70.0279 -2.45074 0
68.1865 -4.50977 0
68.8912 -0.181127 0
67.5674 -4.37242 0
68.6399 1.90345 0
68.9717 0.292698 0
68.7559 4.70409 0
68.5975 0.0699835 0
68.5914 5.48133 0
68.4656 5.19266 0
68.3849 0.124468 0
67.9138 4.56168 0
68.253 0.0848208 0
68.4093 -4.03365 0
68.8974 -0.346913 0
69.1093 4.02924 0
67.7672 0.455121 0
67.7069 4.31116 0
67.4915 -4.38592 0
68.9848 -0.151689 0
66.3351 -3.72789 0
67.7975 -0.419598 0
66.817 -3.70676 0
68.1853 1.69505 0
67.7834 0.101978 0
68.8419 -3.25093 0
67.7845 -0.124334 0
66.3924 -3.50782 0
67.2439 3.90787 0
67.3378 -2.72609 0
67.7914 -0.250642 0
66.5746 -3.00613 0
67.8057 2.09149 0
66.3506 1.34368 0
66.8842 3.38461 0
67.6323 -0.757343 0
66.5215 -3.31629 0
67.7348 0.284602 0
66.8402 4.53136 0
67.702 -1.58709 0
67.7862 -0.0942894 0
66.2846 -3.02766 0
66.7341 4.11649 0
67.7345 0.436535 0
66.5919 3.23588 0
66.4476 3.18574 0
67.7314 0.256945 0
65.922 2.85976 0
65.7149 -2.68192 0
67.7576 -0.308054 0
65.4649 -2.69969 0
66.9758 -1.31885 0
67.7811 -0.219108 0
65.1212 -1.84003 0
65.9031 3.57001 0
67.6705 0.357651 0
66.739 2.24683 0
65.4691 -1.62608 0
67.6858 -0.326569 0
64.9959 -1.51575 0
65.0911 2.63094 0
67.6833 0.128405 0
65.3388 2.50059 0
65.5543 2.02675 0
67.7848 0.00219277 0
65.0239 2.1849 0
65.8151 -0.96562 0
67.6636 -0.477254 0
65.2917 -0.850757 0
64.4905 -0.494957 0
67.2649 -0.687134 0
64.6527 -0.407733 0
67.0247 0.591508 0
67.7297 0.00403958 0
66.4837 1.6697 0
64.9627 1.74567 0
67.625 -0.0555784 0
64.5485 1.1673 0
67.4363 -0.268737 0
67.7622 -0.133807 0
64.5316 -0.0653143 0
64.8505 0.0403552 0
67.7415 -0.113592 0
66.3823 0.195196 0
65.1074 0.443079 0
67.7512 -0.0962281 0
67.4747 -3.61596 0
67.8136 -0.400768 0
67.7665 0.112519 0
68.0397 4.7021 0
68.7318 -4.85217 0
70.3579 -0.561425 0
69.3024 0.648546 0
70.4694 5.67114 0
67.7252 0.175744 0
65.5698 3.42218 0
65.209 -1.84135 0
67.7224 -0.222328 0
67.768 -0.494795 0
67.6373 -2.33008 0
67.7852 0.48941 0
67.8172 0.159252 0
67.7369 -0.0696561 0
64.8967 1.52485 0
68.5572 0.302552 0
68.0177 0.988565 0
68.3065 -0.899787 0
69.2401 -0.423382 0
72.6405 -0.663555 0
72.8781 -4.87129 0
74.1807 4.9324 0
72.5796 0.258615 0
67.6351 1.02351 0
69.0469 5.33469 0
68.408 -4.45771 0
68.6528 -1.46579 0
67.1345 -1.04098 0
65.6392 -0.0936904 0
66.7958 4.04609 0
67.8238 1.19875 0
67.8085 -1.21248 0
65.786 -3.04169 0
76.3516 -2.44395 0
74.2229 -0.336179 0
74.1792 0.35987 0
77.3152 1.70808 0
67.8116 -0.623086 0
67.7974 -0.0493201 0
67.7752 0.128992 0
68.3491 0.484417 0
71.0714 0.439346 0
70.9584 2.63039 0
69.8609 -1.17462 0
71.7439 -0.965932 0
70.2729 3.22391 0
72.3509 5.26843 0
71.6745 -5.14796 0
70.6824 -1.09859 0
73.3358 0.876523 0
74.3232 2.90861 0
72.9828 -1.49998 0
73.587 -0.0073559 0
75.4515 -0.05755 0
76.7065 -0.414281 0
76.4811 -1.95258 0
74.9277 -0.00512741 0
75.2374 0.00522095 0
76.664 0.871358 0
74.8122 -1.64344 0
74.9059 -0.17476 0
68.5062 -0.947954 0
68.1189 -0.383934 0
67.9884 0.768373 0
68.4986 0.618188 0
67.9083 0.745056 0
67.7847 0.195908 0
67.7808 -0.119316 0
67.9303 -0.793334 0
74.9201 0.311013 0
75.8494 0.37554 0
75.0276 -0.508668 0
75.1002 -0.0593806 0
66.4656 -0.70382 0
67.7683 -0.196647 0
67.4632 -0.417654 0
67.7633 -0.37241 0
67.7667 0.155095 0
67.7102 0.573159 0
75.6763 1.92616 0
74.6488 0.292919 0
74.5569 -0.00567311 0
73.934 -0.0644025 0
70.1276 -0.0186129 0
69.7256 -1.69992 0
70.3243 1.16617 0
69.4372 0.292677 0
67.7059 2.74493 0
67.4048 4.98104 0
67.4461 -3.99425 0
68.1024 -2.07723 0
68.3516 -1.36822 0
67.5574 -1.51035 0
67.7726 3.14626 0
67.9043 1.44377 0
74.9899 -0.249987 0
75.0533 -0.123155 0
75.5023 0.0273119 0
76.2803 0.460877 0
69.1213 -3.31247 0
69.7904 -3.16117 0
69.4373 3.07156 0
69.9385 5.67083 0
68.6259 -2.47724 0
69.3059 -1.40696 0
69.096 2.06044 0
68.5416 1.01012 0
74.0614 2.22658 0
73.7008 0.214425 0
74.2137 -0.000170759 0
74.5224 0.118531 0
67.3691 0.575904 0
67.7686 -0.00235964 0
74.5778 -0.132208 0
74.6164 -0.739049 0
75.5786 0.578464 0
74.8426 0.0958127 0
68.3646 -0.633336 0
68.0677 -0.907353 0
68.49 1.14758 0
67.9292 0.444883 0
67.8087 -0.161429 0
67.9356 -0.51131 0
67.8094 0.230974 0
67.7773 0.117365 0
65.1798 1.25669 0
67.1284 0.972304 0
73.4803 -1.69243 0
75.7038 -3.23205 0
76.8404 2.95889 0
73.5075 1.25439 0
67.1186 -1.52826 0
65.7006 -1.87294 0
72.8252 0.071317 0
72.398 0.551851 0
72.8548 -0.0668543 0
72.3642 -0.388932 0
74.4295 -0.697756 0
73.7993 -0.0765947 0
73.324 -1.27124 0
73.1362 -0.00902613 0
74.2916 -0.0855504 0
74.271 -0.065941 0
74.2351 0.7268 0
74.0032 0.00520225 0
67.7716 0.112446 0
67.604 0.269862 0
66.7653 0.26093 0
65.35 0.647701 0
67.7099 -0.275908 0
67.7511 -0.196708 0
67.388 0.0816075 0
67.3947 -0.59588 0
76.6135 -0.969618 0
74.9965 -0.820798 0
76.0369 0.603854 0
77.2847 -1.07798 0
67.8617 -0.0507892 0
67.9274 -0.274176 0
67.79 0.0443578 0
67.9784 0.156725 0
74.031 -0.0570792 0
74.2436 -0.15442 0
73.362 0.490757 0
72.9522 0.0685324 0
73.0521 -0.136668 0
73.2444 -0.648182 0
72.4055 -1.17402 0
72.4968 -0.232587 0
68.1423 -0.61105 0
68.7545 -1.36686 0
68.2634 1.05301 0
68.0277 0.803061 0
68.535 1.91828 0
67.5049 1.16626 0
67.9345 -1.29871 0
68.3719 -1.78274 0
75.8915 -0.119633 0
76.5607 0.585324 0
75.1158 -1.82487 0
75.6717 -0.66023 0
67.6433 -0.845137 0
67.7192 -0.977985 0
67.6779 0.633251 0
67.3627 0.785106 0
73.5876 -0.42945 0
73.1777 0.04034 0
72.0703 -0.0937083 0
71.9206 -0.52216 0
72.5804 2.61626 0
74.1827 4.35322 0
73.5725 -4.73511 0
72.9748 -1.81431 0
66.0918 -2.22365 0
67.5954 -2.25715 0
72.1018 -1.71307 0
72.4165 -0.611024 0
71.5343 0.299772 0
73.7113 1.70551 0
65.7639 3.25815 0
66.9604 1.85083 0
73.461 -0.0443423 0
73.9072 -0.532684 0
72.723 0.0773532 0
72.7586 0.00668746 0
74.4862 -0.179877 0
74.3874 -0.751008 0
74.9746 0.823097 0
74.2491 0.124857 0
71.1269 0.909138 0
69.9238 0.23408 0
70.6403 -0.203668 0
71.0969 -1.77652 0
75.4568 0.718445 0
75.6968 1.65277 0
74.0751 -0.669901 0
74.9479 -0.720603 0
70.5371 -2.23934 0
71.1171 -1.02841 0
70.7094 1.73476 0
72.6439 3.77097 0
73.3773 0.405988 0
72.9817 0.0864956 0
71.979 -0.0549493 0
71.91 0.355491 0
72.6778 -0.308778 0
72.955 -0.00576166 0
72.7632 -0.0661862 0
73.1488 -0.488275 0
68.9485 0.326896 0
68.805 0.849712 0
69.0703 -0.705902 0
69.5839 -0.210151 0
70.0421 1.85554 0
68.9554 1.28126 0
68.6479 -1.78148 0
68.1329 -1.8548 0
75.4698 -0.170825 0
75.3253 -0.0964943 0
75.1231 -0.0267627 0
75.4663 -0.313764 0
68.9838 2.55006 0
69.2785 1.70516 0
68.6416 -0.531502 0
68.5353 -0.200063 0
68.3557 0.172996 0
68.7929 0.575112 0
66.888 -0.645998 0
67.5449 -0.966804 0
76.4542 -1.51426 0
75.0869 -0.965267 0
75.3123 1.84514 0
77.4901 0.974663 0
67.7759 -0.673674 0
67.8078 -0.153547 0
67.7405 0.1619 0
67.7856 0.514525 0
67.9417 0.0536061 0
67.9493 0.37641 0
68.0985 -0.233908 0
68.1896 -0.0139784 0
66.1798 -0.168255 0
64.5121 0.202732 0
72.4821 1.96709 0
75.1251 1.40729 0
73.9464 -1.30917 0
74.4394 -2.61236 0
67.5219 1.3327 0
67.2468 0.688002 0
67.7865 -0.0408164 0
67.6043 -0.137558 0
69.6061 4.56052 0
68.0113 2.74437 0
69.2471 -2.62086 0
68.7825 -5.03626 0
67.37 0.434263 0
67.6943 0.238792 0
74.214 0.983463 0
74.4746 2.29651 0
74.3036 0.229214 0
74.2766 -0.0669944 0
72.0878 -0.138122 0
72.3531 -0.125475 0
72.9853 -0.0496429 0
73.4892 -0.0635388 0
76.2925 -1.665 0
76.312 -0.223598 0
76.1751 -0.0670713 0