# vtk DataFile Version 3.0
Unstructured Grid for Triangles
ASCII
DATASET UNSTRUCTURED_GRID
POINTS 29612 DOUBLE
-0.000272397 1.23686e-05 0
-0.000295789 9.5838e-06 0
-0.000277865 -3.1235e-06 0
0.002024 0.0005 0
0.00203975 0.00049875 0
0.00205 0.0005 0
0.00203975 -0.00049875 0
0.002024 -0.0005 0
0.00205 -0.0005 0
0.0020295 0.0004975 0
0.0020295 -0.0004975 0
0.00201925 0.00049625 0
0.00201925 -0.00049625 0
-0.000529747 -0.000479887 0
-0.00055 -0.0005 0
-0.000524 -0.0005 0
-0.000505983 -0.000484325 0
-0.000498 -0.0005 0
-0.000472 -0.0005 0
-0.000483864 -0.000487761 0
-0.000446 -0.0005 0
-0.000459 -0.000484239 0
-0.000429453 -0.000424878 0
-0.000447486 -0.000420717 0
-0.000441829 -0.000436609 0
-0.000512578 -0.000462101 0
-0.000493078 -0.000453594 0
-0.00050706 -0.000439006 0
-0.000419243 -0.000477545 0
-0.000440307 -0.000471837 0
-0.00043691 -0.000486724 0
-0.000516129 -0.000420948 0
-0.000495355 -0.000415432 0
-0.000511646 -0.00040128 0
-0.000394697 -0.000481197 0
-0.000406302 -0.000455143 0
-0.000537257 -0.000388197 0
-0.000531099 -0.000407297 0
-0.000523982 -0.000388328 0
-0.000370063 -0.000472956 0
-0.000368 -0.0005 0
-0.00035308 -0.000485302 0
-0.0005072 -0.00037867 0
-0.000485506 -0.000383975 0
-0.000490949 -0.000359622 0
-0.000337127 -0.000484331 0
-0.000316 -0.0005 0
-0.000326495 -0.00047415 0
-0.00055 -0.00035 0
-0.000531201 -0.000370361 0
-0.000528367 -0.000346817 0
-0.000363898 -0.000448809 0
-0.000383315 -0.000460336 0
-3.26269e-05 -0.000415503 0
-5.99662e-05 -0.000409556 0
-5.46944e-05 -0.000429488 0
-0.000529747 0.000479887 0
-0.00055 0.0005 0
-0.00055 0.000475 0
-0.00055 0.00045 0
-0.000534834 0.000429171 0
-0.000526943 0.000442611 0
-0.000534026 0.000460176 0
-0.000531099 0.000407297 0
-0.000511672 0.000401178 0
-0.000516129 0.000420948 0
-0.000524 0.0005 0
-0.000505983 0.000484325 0
-0.000531201 0.000370361 0
-0.0005072 0.00037867 0
-0.000523982 0.000388328 0
-0.00048341 0.000469132 0
-0.000483679 0.000487539 0
-0.000528367 0.000346817 0
-0.00055 0.000325 0
-0.000525657 0.000328474 0
-0.000498 0.0005 0
-0.000530382 0.0003125 0
-0.000419243 0.000477545 0
-0.000440015 0.00047335 0
-0.000425917 0.000463678 0
-0.000435138 0.000262661 0
-0.000414982 0.000274462 0
-0.000435654 0.000285217 0
-0.000459 0.000484239 0
-0.000436852 0.000487027 0
-0.000446 0.0005 0
-0.000533308 0.000292503 0
-0.00055 0.000275 0
-0.000523377 0.000276953 0
-0.000425282 0.000446352 0
-0.000409368 0.000435728 0
-0.000406302 0.000455143 0
0.002009 0.000495 0
0.001998 0.0005 0
0.00199875 0.00049375 0
0.0019885 0.0004925 0
0.001972 0.0005 0
0.00197825 0.00049125 0
0.001968 0.00049 0
0.00195775 0.00048875 0
0.001946 0.0005 0
0.0019475 0.0004875 0
0.00193725 0.00048625 0
0.00192 0.0005 0
0.001927 0.000485 0
0.00191675 0.00048375 0
0.0019065 0.0004825 0
0.001894 0.0005 0
0.00189625 0.00048125 0
0.001886 0.00048 0
0.001868 0.0005 0
0.00187575 0.00047875 0
0.0018655 0.0004775 0
0.00185515 0.00048575 0
0.001842 0.0005 0
0.001845 0.000475 0
0.00185525 0.00047625 0
0.00182564 0.0004829 0
0.001816 0.0005 0
0.0018245 0.0004725 0
0.00183475 0.00047375 0
0.00181425 0.00047125 0
0.00180295 0.000482657 0
0.00179 0.0005 0
0.00179375 0.00046875 0
0.001804 0.00047 0
0.00178168 0.000480619 0
0.001764 0.0005 0
0.00177325 0.00046625 0
0.0017835 0.0004675 0
0.00176428 0.000476631 0
0.001763 0.000465 0
0.001738 0.0005 0
0.001751 0.000484164 0
0.00175275 0.00046375 0
0.00174025 0.000475632 0
0.001712 0.0005 0
0.00172615 0.000478449 0
0.001722 0.00046 0
0.00173225 0.00046125 0
0.0017015 0.0004575 0
0.00171243 0.00047381 0
0.00169554 0.000479999 0
0.001686 0.0005 0
0.00167507 0.000479751 0
0.00168498 0.000464861 0
0.00166 0.0005 0
0.0016558 0.000471459 0
0.00167135 0.000462887 0
0.001681 0.000455 0
0.0016605 0.0004525 0
0.00167075 0.00045375 0
0.00164059 0.000461599 0
0.0016394 0.000479551 0
0.00162881 0.00046615 0
0.00162975 0.00044875 0
0.00165025 0.00045125 0
0.00164 0.00045 0
0.00161754 0.000458641 0
0.00161722 0.000478101 0
0.00159956 0.000458294 0
0.00160925 0.00044625 0
0.0016195 0.0004475 0
0.00157667 0.000460322 0
0.00158875 0.00044375 0
0.00159194 0.000480155 0
0.001599 0.000445 0
0.0015785 0.0004425 0
0.00155808 0.000456757 0
0.00155647 0.000476701 0
0.00154059 0.000466642 0
0.00153756 0.000450083 0
0.00154839 0.000450446 0
0.00156825 0.00044125 0
0.00151954 0.000480508 0
0.00154052 0.00048477 0
0.00153 0.0005 0
0.00154775 0.00043875 0
0.00152142 0.000456625 0
0.00152821 0.000445753 0
0.0015375 0.0004375 0
0.001504 0.0005 0
0.00149644 0.000485168 0
0.00151787 0.000443178 0
0.00152725 0.00043625 0
0.00150675 0.00043375 0
0.001517 0.000435 0
0.00148119 0.000450887 0
0.00148072 0.000475756 0
0.00146584 0.000463516 0
0.00150008 0.00046396 0
0.00149351 0.00044543 0
0.0015061 0.000446252 0
0.001476 0.00043 0
0.00148625 0.00043125 0
0.00146492 0.000482975 0
0.00144888 0.000473562 0
0.00146676 0.000444259 0
0.00145255 0.000453656 0
0.00145652 0.000438669 0
0.00141401 0.000479821 0
0.001426 0.0005 0
0.0014 0.0005 0
0.00144374 0.000438862 0
0.0014555 0.0004275 0
0.001435 0.000425 0
0.00144525 0.00042625 0
0.00142746 0.000438121 0
0.00141288 0.000443191 0
0.00141707 0.000432778 0
0.0013921 0.000438992 0
0.00140355 0.00045932 0
0.00138302 0.00045922 0
0.00142912 0.000458869 0
0.00140592 0.000430037 0
0.0014145 0.0004225 0
0.00136458 0.00045869 0
0.00137106 0.00044063 0
0.001394 0.00042 0
0.00138259 0.000428915 0
0.00137484 0.000477094 0
0.00139166 0.000478902 0
0.0013586 0.000478984 0
0.00133449 0.000478649 0
0.00134717 0.000461848 0
0.00137256 0.000425134 0
0.00135323 0.000424541 0
0.00136325 0.00041625 0
0.00136122 0.00042876 0
0.00131206 0.000447284 0
0.00133168 0.000456738 0
0.00131773 0.000465243 0
0.00134756 0.000440343 0
0.00132747 0.000436463 0
0.00133483 0.000426786 0
0.00131081 0.00041867 0
0.00132382 0.000422815 0
0.00131507 0.00043122 0
0.00131059 0.000480123 0
0.0013325 0.0004125 0
0.0012915 0.0004075 0
0.0012982 0.000418199 0
0.00128915 0.000426216 0
0.00126366 0.000447574 0
0.00127331 0.000430908 0
0.00128781 0.000444872 0
0.00125336 0.000428376 0
0.00130218 0.000431077 0
0.00127894 0.000416344 0
0.00124774 0.000469608 0
0.00127668 0.000464148 0
0.00126591 0.00048331 0
0.00126722 0.000418415 0
0.00125768 0.000411931 0
0.00124326 0.000413546 0
0.0012505 0.0004025 0
0.00122408 0.000450118 0
0.00120276 0.000447432 0
0.0012139 0.000432235 0
0.00124336 0.000444132 0
0.00123056 0.000427595 0
0.00122977 0.000409049 0
0.0012185 0.000469217 0
0.00122676 0.000485947 0
0.00120525 0.000486094 0
0.00121479 0.000413153 0
0.00119547 0.000424221 0
0.00120249 0.000407448 0
0.00119925 0.00039625 0
0.00119346 0.000406114 0
0.00117479 0.000447279 0
0.00114726 0.000445259 0
0.0011571 0.000427814 0
0.00119443 0.000466611 0
0.00117447 0.000421596 0
0.00118421 0.00040752 0
0.00117409 0.000404437 0
0.00116775 0.000470073 0
0.001179 0.0004855 0
0.00115473 0.000484802 0
0.0011685 0.0003925 0
0.00117875 0.00039375 0
0.00115454 0.000400551 0
0.001148 0.00039 0
0.00115825 0.00039125 0
0.00111703 0.000423398 0
0.00113786 0.000426731 0
0.00112589 0.000443871 0
0.00113234 0.000406671 0
0.00114754 0.000413371 0
0.001106 0.000442326 0
0.00109703 0.000424261 0
0.0011275 0.0003875 0
0.00113775 0.00038875 0
0.00110211 0.000480875 0
0.00108244 0.000471951 0
0.00109312 0.000458413 0
0.00111755 0.000399116 0
0.0010944 0.000392972 0
0.00110415 0.000405876 0
0.00108839 0.000407536 0
0.00106472 0.000476905 0
0.00107274 0.000457868 0
0.00108011 0.000392415 0
0.00106885 0.000404365 0
0.00106625 0.000388708 0
0.00105286 0.000419254 0
0.00105055 0.000395469 0
0.00104215 0.000439764 0
0.00106346 0.000440629 0
0.00100945 0.000451249 0
0.00102825 0.00045614 0
0.00101189 0.000468452 0
0.00107625 0.00038125 0
0.00105575 0.00037875 0
0.001066 0.00038 0
0.00103352 0.000476905 0
0.00101803 0.00048465 0
0.00103685 0.000389398 0
0.0010245 0.00038825 0
0.00103525 0.00037625 0
0.00101092 0.000399779 0
0.00101267 0.000382619 0
0.00101382 0.00042025 0
0.00103187 0.000405286 0
0.00103359 0.000424605 0
0.000987383 0.00045447 0
0.000999411 0.000435161 0
0.0009744 0.000433145 0
0.0010045 0.0003725 0
0.00101475 0.00037375 0
0.000970845 0.000465215 0
0.000952614 0.000467664 0
0.000961768 0.000449944 0
0.00099729 0.000387704 0
0.000978901 0.00039598 0
0.000985823 0.000381492 0
0.000962289 0.000393709 0
0.000974259 0.000381279 0
0.00097375 0.00036875 0
0.000963045 0.000376631 0
0.000958 0.0005 0
0.000932 0.0005 0
0.000947542 0.00048457 0
0.000949675 0.000385245 0
0.000936214 0.000389472 0
0.000940006 0.000374906 0
0.000966411 0.000412573 0
0.000944241 0.000407079 0
0.000903569 0.000424993 0
0.000921701 0.000402409 0
0.000927439 0.000427744 0
0.000889795 0.000409067 0
0.000903071 0.00040248 0
0.000925447 0.000377721 0
0.00093275 0.00036375 0
0.000907708 0.000387127 0
0.000911303 0.000370839 0
0.000911933 0.000455145 0
0.000930678 0.000473279 0
0.000911886 0.000482603 0
0.000887724 0.000388076 0
0.000899595 0.000375116 0
0.000902 0.00036 0
0.000889241 0.00036954 0
0.000836977 0.000459472 0
0.000836223 0.000483578 0
0.000820467 0.000474142 0
0.000871227 0.000403557 0
0.000861 0.000355 0
0.000868368 0.000365714 0
0.00085484 0.00036588 0
0.000847735 0.000402845 0
0.000823121 0.000421599 0
0.000826582 0.000398147 0
0.000846943 0.00042454 0
0.000838832 0.000378613 0
0.000835569 0.000363808 0
0.000844098 0.00036291 0
0.00085075 0.00035375 0
0.000851465 0.000477164 0
0.00083025 0.00035125 0
0.000822824 0.000368659 0
0.00081446 0.000357362 0
0.000805884 0.000371794 0
0.000753471 0.000477524 0
0.000738313 0.000473927 0
0.000739102 0.000461526 0
0.00079826 0.000358588 0
0.000788607 0.000376287 0
0.000781733 0.000357987 0
0.000816783 0.000384471 0
0.000807975 0.000404095 0
0.000752138 0.000404775 0
0.000767682 0.000417043 0
0.000749617 0.000421803 0
0.000752903 0.000384008 0
0.000738293 0.000393136 0
0.000772614 0.000394048 0
0.00076863 0.000371878 0
0.000765995 0.000354121 0
0.000779 0.000345 0
0.00071811 0.000453059 0
0.000738069 0.000437967 0
0.000752085 0.000365972 0
0.000728123 0.000374583 0
0.000741845 0.000354664 0
[...]
CELL_DATA 58684
VECTORS velocity DOUBLE
65.6043 0.162906 0
68.2377 -0.000905866 0
68.2583 0.00289417 0
68.1674 0.0235207 0
68.1806 -0.0329215 0
68.1293 0.00383431 0
68.1439 0.000886953 0
67.9903 0.0367249 0
68.0707 0.0430768 0
68.2929 0.0139377 0
68.4959 0.00518267 0
68.3954 -0.67731 0
68.0702 0.106965 0
68.6816 -0.18684 0
67.9275 0.205517 0
68.8246 -0.187121 0
67.836 0.230192 0
68.7973 -0.134364 0
67.8038 -0.151046 0
68.8881 -0.159868 0
67.6955 0.103868 0
68.8055 -0.295422 0
71.2839 -1.40442 0
67.8649 -0.0315258 0
67.9484 -0.141887 0
67.8491 -0.0571705 0
67.9295 -0.2937 0
68.0647 -0.0461868 0
67.7445 -0.281893 0
68.2658 -0.0177986 0
67.6557 -0.0252523 0
68.1994 0.00914173 0
67.5982 0.0367398 0
68.7649 0.213061 0
67.3279 2.02829 0
68.5918 0.110637 0
67.6382 0.286526 0
68.7162 0.379666 0
68.0143 -0.0752166 0
67.9354 -0.0233373 0
67.8042 0.0237202 0
67.7563 -0.0631886 0
67.5114 -0.0415361 0
67.335 0.0024317 0
67.232 -0.0153571 0
67.1096 -0.112654 0
66.9057 -0.0663202 0
66.7614 -0.0233825 0
66.68 -0.0725048 0
66.486 -0.0480333 0
66.3743 -0.0291424 0
66.3036 -0.0211471 0
66.2439 -0.0365934 0
66.1716 -0.0243407 0
66.1419 -0.0137809 0
66.1141 0.00715417 0
66.1736 0.0126782 0
66.2121 -0.00586976 0
66.2453 0.0281532 0
66.2936 0.0633684 0
66.4582 0.0412342 0
66.4592 0.0331792 0
66.6998 0.0702869 0
66.9176 0.0563973 0
66.8963 0.0522001 0
66.9806 0.119735 0
67.1751 0.0933367 0
67.3919 0.0543675 0
67.3997 0.0849275 0
67.5891 0.0867718 0
67.8435 0.0397063 0
67.8185 0.0604751 0
67.9471 0.0857956 0
68.0781 0.0108315 0
68.3134 0.0403448 0
68.3381 -0.0104681 0
68.4313 -0.0177804 0
68.6083 0.0235315 0
68.5889 -0.0325577 0
68.7245 -0.0338865 0
68.6314 -0.0266964 0
68.7526 -0.00599369 0
68.762 -0.0341344 0
68.7331 -0.0903233 0
68.5658 -0.0478717 0
68.5917 -0.0826444 0
68.6551 -0.0787733 0
68.6041 -0.133934 0
68.2359 -0.102804 0
68.1487 -0.0784631 0
68.3998 -0.1388 0
68.2268 -0.133518 0
67.7888 -0.0806582 0
67.9741 -0.0406753 0
67.9515 -0.0960931 0
67.5715 0.00850286 0
67.5242 -0.0249378 0
67.714 -0.0678911 0
67.6294 -0.00856297 0
67.5899 -0.0157528 0
67.9898 -0.00335797 0
67.6104 0.00527012 0
68.2277 -0.0259529 0
67.9206 0.0444907 0
68.3911 0.0373871 0
68.169 0.0124395 0
68.9314 -0.0804419 0
68.4086 0.0483356 0
68.7296 0.0276595 0
69.7311 -0.0107212 0
69.551 -0.014597 0
69.124 -0.0376848 0
69.6707 -0.0151162 0
70.0821 -0.0270197 0
70.1847 -0.0283371 0
70.1823 -0.0278084 0
70.4514 -0.0295637 0
70.2318 -0.0302448 0
70.3505 -0.0205644 0
70.4519 -0.0703853 0
70.2971 -0.0740851 0
70.4618 -0.0271687 0
70.4547 -0.089061 0
70.0643 -0.089708 0
70.2854 -0.0894401 0
70.2203 -0.0215587 0
70.2399 -0.134374 0
69.7192 -0.111529 0
70.1084 -0.0995435 0
69.8998 -0.106899 0
69.203 -0.0744205 0
69.5466 -0.152776 0
69.3951 -0.0831516 0
69.2029 -0.115911 0
69.2377 -0.10033 0
69.4618 -0.132382 0
68.8397 -0.140728 0
68.5401 -0.124905 0
68.3935 -0.0285666 0
68.7873 -0.101137 0
68.6714 -0.144506 0
68.4185 0.0372727 0
68.3955 -0.0753577 0
68.3196 -0.100588 0
67.9542 0.0415533 0
68.1684 -0.0059144 0
68.2793 -0.0563056 0
68.1605 -0.0117895 0
67.9287 -0.000936568 0
67.9736 0.0619812 0
67.974 0.108436 0
67.9028 0.161487 0
67.8401 0.0964283 0
67.9429 0.148018 0
67.9386 0.155216 0
67.8373 0.0443524 0
67.9492 0.180732 0
67.9537 0.263928 0
68.0351 0.25307 0
68.022 0.268904 0
68.1862 0.3075 0
68.0543 0.32749 0
68.2779 0.172979 0
68.0865 0.348184 0
68.3063 0.416795 0
68.4716 0.182779 0
68.4799 0.414442 0
68.62 0.393902 0
68.6601 0.341312 0
69.077 0.16121 0
68.413 0.428232 0
68.5067 0.39274 0
69.0616 0.0890271 0
68.6805 0.346764 0
68.8818 0.290437 0
68.8397 0.290706 0
69.1568 0.188715 0
69.2707 0.0822511 0
68.8081 0.235453 0
69.4875 0.038699 0
68.9781 0.17515 0
69.0356 0.0198607 0
69.0073 -0.0329349 0
69.6142 0.0137517 0
69.164 -0.196149 0
69.1743 -0.0698277 0
69.3971 -0.29095 0
69.4234 -0.475484 0
69.0484 -0.305172 0
69.1272 -0.413103 0
69.6829 -0.0525275 0
69.1305 -0.575142 0
69.1315 -0.681321 0
69.1798 -0.629331 0
69.496 -0.285741 0
69.3215 -0.652733 0
69.0742 -0.994591 0
69.3509 -0.899469 0
69.3421 -0.789581 0
69.1346 -1.14587 0
69.0767 -1.09494 0
69.5734 -0.229176 0
69.0558 -1.3024 0
69.0507 -1.2916 0
69.0489 -0.359724 0
69.0536 -1.49154 0
69.1969 -1.06649 0
69.0803 -1.10902 0
69.0245 -1.38199 0
69.094 -1.41258 0
68.9867 -1.62215 0
69.0022 -0.694635 0
68.9444 -1.65306 0
68.9884 -1.76043 0
68.9556 -1.86405 0
68.814 -0.0757241 0
68.9517 -1.59052 0
68.9303 -1.89286 0
68.8825 -0.521188 0
68.9499 -1.92948 0
68.8507 -1.23558 0
68.9932 -1.98709 0
68.7672 -0.688284 0
68.9256 -1.80025 0
68.9756 -2.00389 0
68.7624 -0.308871 0
69.0231 -2.03937 0
69.04 -1.94918 0
68.9133 -1.70129 0
68.8301 -1.05561 0
69.0535 -2.13345 0
68.8019 -0.859927 0
69.0456 -0.138517 0
68.9584 -1.76174 0
69.1023 -2.07516 0
69.1893 -2.17635 0
68.9809 -0.701816 0
69.1877 -1.90803 0
69.3317 -2.03201 0
69.1992 -0.214814 0
69.4259 -1.97092 0
69.3807 -2.15617 0
69.1969 -1.63671 0
69.2879 -0.782719 0
69.3683 -0.940372 0
69.4686 -2.1805 0
69.8218 -0.00321663 0
69.5606 -2.31338 0
69.6857 -2.23229 0
69.6336 -2.33008 0
70.1115 -0.60101 0
69.812 -1.99389 0
70.0112 -2.11923 0
70.4865 0.00331914 0
70.1268 -2.46264 0
70.4468 -2.33955 0
70.1407 -1.58315 0
70.3278 -0.742102 0
70.3307 -2.51441 0
70.4794 -0.923851 0
71.2687 -0.11235 0
70.4127 -1.94943 0
70.6315 -2.57217 0
70.8812 -2.55075 0
71.3262 -0.432356 0
71.256 -2.17989 0
70.979 -2.54944 0
71.7407 -0.230902 0
71.1863 -2.79149 0
71.52 -2.81199 0
71.759 -1.64446 0
72.294 0.00745544 0
71.8722 -2.80673 0
72.2913 -0.910782 0
72.5212 -1.04535 0
71.9843 -2.53612 0
71.9686 -1.99054 0
72.5432 -2.61363 0
72.6255 -0.305611 0
72.4144 -2.82322 0
72.8424 -1.93765 0
73.0973 -2.5528 0
72.3975 -0.0603275 0
73.6188 -1.91851 0
73.6266 -1.59742 0
72.6424 0.0418964 0
73.8015 -2.52969 0
74.2419 -1.80728 0
73.2454 -0.152309 0
72.7946 -0.0984867 0
73.4385 -0.978563 0
74.4379 -1.3237 0
72.7288 0.0760707 0
74.5639 -0.684025 0
74.6148 -1.6474 0
74.6332 -1.40884 0
72.6083 0.518861 0
73.9973 -0.133166 0
74.9773 -0.410653 0
72.5201 0.0953184 0
74.8315 -0.0392537 0
74.7369 0.346217 0
74.6114 1.64679 0
71.5456 0.207348 0
75.3057 1.0499 0
73.8716 0.893733 0
72.397 0.666107 0
72.5123 1.4651 0
75.2518 1.43774 0
74.9936 2.29469 0
71.8682 0.353547 0
75.0017 2.68094 0
68.0274 0.0728321 0
67.9505 0.0241141 0
67.8045 -0.0293761 0
67.7535 0.0735505 0
67.5189 0.0400586 0
67.338 -0.00328245 0
67.2371 0.02813 0
67.1132 0.115661 0
66.9111 0.0658726 0
66.7667 0.02126 0
66.6881 0.0652891 0
66.493 0.0485349 0
66.3834 0.0335275 0
66.3104 0.0241709 0
66.2504 0.0382706 0
66.1778 0.0248349 0
66.1454 0.0115616 0
66.1179 -0.00847414 0
66.1757 -0.0123769 0
66.2119 0.00714317 0
66.245 -0.0244319 0
66.3856 -0.0116005 0
66.2924 -0.0646582 0
66.5245 -0.0126291 0
66.8115 -0.053569 0
66.6909 -0.0688867 0
66.9728 -0.107732 0
67.1684 -0.0894967 0
67.3138 -0.0312504 0
67.1112 -0.00548077 0
67.5811 -0.0855711 0
67.7267 -0.0236087 0
67.594 0.0042582 0
68.0694 -0.00966773 0
68.1416 -0.0301609 0
68.2443 -0.0171846 0
68.0294 0.00547568 0
68.328 0.00998432 0
68.5199 -0.0122313 0
68.4214 0.0166057 0
68.6776 0.0556297 0
68.7135 0.0620283 0
68.7141 0.0327817 0
68.6873 0.0313564 0
68.7236 0.0890139 0
68.6504 0.0813411 0
68.5582 0.0480262 0
68.6997 0.0752832 0
68.5268 0.0553358 0
68.4796 0.133497 0
67.9806 0.042031 0
68.2251 0.100724 0
68.133 0.0747801 0
67.9822 0.0766696 0
67.6273 0.0297463 0
67.7563 -0.00294148 0
67.7298 0.029093 0
67.5117 0.022907 0
67.5068 0.0271093 0
67.6039 0.00318776 0
67.582 0.0254886 0
67.6617 -0.0559671 0
67.8388 -0.0507102 0
67.9614 -0.00797933 0
67.516 -0.00300228 0
68.1379 -0.0153899 0
68.7151 -0.0494763 0
68.5039 -0.0183524 0
68.3651 -0.024431 0
69.0568 -0.026671 0
69.228 -0.0628876 0
70.0729 0.0231613 0
69.1055 0.0320066 0
69.8089 -0.0148438 0
70.0351 0.00147027 0
69.5723 0.0294444 0
70.0581 0.0127539 0
70.3477 0.00654683 0
70.2006 0.0200212 0
70.424 0.0248558 0
70.4484 0.0714802 0
70.411 0.0324793 0
70.3248 0.0301201 0
70.406 0.0581341 0
70.3462 0.0952608 0
70.1138 0.00757564 0
70.2014 0.11284 0
70.2477 0.0379784 0
69.9764 0.164916 0
70.0969 0.0794266 0
69.8942 0.0999075 0
69.3612 0.126307 0
69.2214 0.0914633 0
69.4938 0.0571324 0
69.1292 0.118782 0
69.0958 0.0775272 0
69.3806 0.0815545 0
68.9773 0.138427 0
68.7507 0.116124 0
68.5187 0.0532556 0
68.4088 0.069222 0
68.487 0.0922211 0
68.4577 0.0727674 0
68.5264 0.0182695 0
68.3025 0.0971413 0
68.1747 0.0131387 0
67.8445 -0.00581098 0
68.0825 0.047437 0
68.0004 -0.0614905 0
67.9394 -0.0861481 0
67.9631 -0.0343656 0
67.919 -0.127285 0
67.9364 -0.173197 0
67.8007 -0.109987 0
67.8665 -0.125636 0
67.9131 -0.250038 0
67.9058 -0.225574 0
67.7657 -0.043597 0
67.9497 -0.300625 0
68.093 -0.348303 0
67.8781 -0.13096 0
68.1179 -0.364847 0
68.1069 -0.251931 0
68.2419 -0.377197 0
68.0192 -0.220447 0
68.2177 -0.42261 0
68.3547 -0.438256 0
68.4143 -0.183382 0
68.4204 -0.418671 0
68.5348 -0.405458 0
68.8902 -0.149701 0
68.3896 -0.376815 0
68.7157 -0.347559 0
68.6183 -0.360241 0
68.799 -0.051684 0
68.7449 -0.311129 0
68.8142 -0.209168 0
69.0007 -0.14792 0
69.2872 -0.0778025 0
69.1198 -0.0436451 0
69.0426 -0.100669 0
68.8722 -0.300762 0
68.9789 -0.103169 0
68.9946 0.0471556 0
69.0283 0.193098 0
69.2311 -0.0446338 0
69.0215 0.352285 0
69.0134 0.400358 0
69.2425 0.496154 0
69.4923 0.266659 0
69.4571 0.391691 0
69.1006 0.51868 0
69.5178 0.0252473 0
68.9933 0.771955 0
69.0941 0.729287 0
69.2398 0.764723 0
69.593 0.247659 0
69.0566 0.98072 0
68.9932 1.1472 0
69.3791 0.554975 0
69.3975 0.551286 0
69.1283 1.0534 0
68.9091 1.36453 0
69.4995 0.294107 0
68.9427 1.41252 0
68.9166 1.49082 0
69.2251 0.384619 0
68.9265 1.66027 0
68.9094 1.65896 0
68.8518 1.51688 0
69.0164 0.763726 0
69.0095 0.888149 0
68.8832 1.63522 0
69.1543 0.583239 0
68.8601 1.79936 0
68.838 1.78499 0
68.8298 1.70039 0
68.883 0.32445 0
68.8439 1.89392 0
68.8213 1.89246 0
68.7301 1.2481 0
68.8043 1.5681 0
68.7175 1.01837 0
68.7665 1.82436 0
68.7899 0.708733 0
68.8867 2.02166 0
68.8696 1.98757 0
68.6596 0.465988 0
68.7738 1.82468 0
68.9407 2.02309 0
68.8701 1.98983 0
68.6691 0.496898 0
69.0906 2.03359 0
69.0934 2.11596 0
68.7384 1.48946 0
68.9055 1.62492 0
68.6658 0.90752 0
69.2431 2.19622 0
68.735 0.265126 0
69.2464 2.12838 0
69.2016 2.04258 0
68.608 0.212639 0
69.0754 1.84706 0
69.4568 2.19374 0
69.5466 2.21964 0
69.1237 0.566779 0
69.586 2.21609 0
69.6514 2.38027 0
69.0341 1.44556 0
69.7728 1.67115 0
69.3854 0.556569 0
69.8378 2.42327 0
69.5869 0.203005 0
69.9875 2.39433 0
70.1052 2.42723 0
69.2842 0.149557 0
70.0178 2.10747 0
70.4323 2.59313 0
70.7002 2.59324 0
69.9995 0.461601 0
70.5304 2.48336 0
70.9032 2.82936 0
70.2116 1.84745 0
71.2894 1.9275 0
70.4267 0.388334 0
70.7443 2.51274 0
70.8833 0.144577 0
71.3729 2.96143 0
71.4666 2.8099 0
70.5148 0.141746 0
71.5504 2.34233 0
71.8042 2.7942 0
72.2042 2.84237 0
71.9475 0.252169 0
72.4674 2.89974 0
72.5993 2.69419 0
72.3594 0.441688 0
72.7852 2.96747 0
72.9245 1.65202 0
71.7377 0.83296 0
71.4502 0.497451 0
73.2021 2.92164 0
73.2772 2.19954 0
73.8206 2.55359 0
72.0083 -0.00863438 0
73.7951 1.71436 0
74.3013 2.09076 0
72.3493 0.0846617 0
73.5025 1.58201 0
74.6835 1.65671 0
73.9505 0.818175 0
72.7586 0.287 0
74.7706 1.29511 0
75.0411 0.979696 0
73.1773 1.03486 0
74.2419 -0.0573224 0
73.1227 -0.871115 0
74.6948 0.519742 0
72.7604 -0.0488105 0
75.3395 0.0359709 0
74.5949 3.42333 0
74.9922 2.71363 0
71.1631 1.3349 0
74.5894 3.54639 0
73.2599 3.774 0
74.2069 4.1049 0
71.3138 0.491797 0
73.7826 4.50692 0
73.1848 4.80109 0
70.7088 0.710039 0
73.274 4.92789 0
75.3926 -0.4716 0
72.7484 -0.0059098 0
75.44 -0.802026 0
74.7661 -1.51815 0
74.2736 -1.23935 0
72.5957 -0.0969226 0
75.1506 -1.86969 0
72.4863 4.96389 0
75.0867 -2.97362 0
72.7127 -0.542901 0
74.9701 -2.97908 0
74.4537 -3.80553 0
70.2993 1.81082 0
74.3365 -3.99262 0
74.2487 -1.40647 0
74.6674 -3.41288 0
73.1377 -2.84635 0
71.6671 -0.480525 0
74.0295 -3.75131 0
73.7152 -4.33652 0
72.2578 5.25194 0
73.7237 -4.219 0
72.0967 -0.224976 0
73.1659 -4.80753 0
72.9684 -5.26643 0
71.3456 -0.349111 0
72.4654 -5.67212 0
72.2578 -4.12211 0
70.2868 -0.525788 0
72.0318 -5.89554 0
71.1445 -3.58211 0
71.73 -2.39851 0
72.0439 -5.06625 0
71.4818 -5.53698 0
72.0889 2.7338 0
69.831 0.447378 0
71.3781 1.97011 0
70.5726 -0.0631343 0
71.4295 -5.99552 0
72.1383 5.14724 0
69.7635 0.32624 0
71.4806 4.58006 0
70.9467 -6.0593 0
70.4298 -1.3097 0
70.2056 -4.84866 0
71.9105 5.75653 0
69.4353 2.00403 0
71.8894 5.75172 0
70.421 5.31315 0
69.4918 0.36929 0
71.0031 5.44946 0
70.4582 -4.77683 0
70.1854 -0.368338 0
70.4292 -6.2146 0
70.4629 -6.09884 0
71.1797 5.70743 0
70.0759 5.71379 0
69.2663 0.0761606 0
70.688 5.76105 0
69.2278 4.3805 0
69.2593 2.37688 0
69.8876 -6.25326 0
69.434 -1.04543 0
70.0903 -6.16803 0
69.4316 5.99853 0
69.4732 -5.90637 0
69.0611 -1.2121 0
68.9732 -3.71909 0
68.7403 -5.81475 0
69.882 -3.63278 0
68.5929 -5.6598 0
68.9085 -0.379053 0
67.9985 -5.51439 0
68.5803 3.28849 0
68.9673 0.519445 0
69.1054 5.31052 0
68.8828 0.14893 0
69.0346 5.95161 0
68.8805 5.71553 0
68.7879 0.190473 0
68.3335 5.21322 0
68.8656 0.113338 0
68.7231 -5.26623 0
68.8823 -0.704392 0
69.2646 4.78083 0
67.2417 2.63857 0
68.0991 4.97894 0
67.9128 -5.5132 0
69.011 -0.27228 0
66.7945 -4.79542 0
67.4069 -1.80473 0
67.2709 -4.85926 0
67.9895 3.0604 0
67.6796 0.413587 0
68.9887 -4.72226 0
67.6961 -0.0263544 0
66.805 -4.56762 0
67.6488 4.62189 0
67.5124 -4.07183 0
67.5204 -0.207615 0
66.8628 -4.14518 0
67.7205 3.49789 0
66.5033 1.86742 0
67.2083 4.19378 0
67.0124 -2.46206 0
66.8843 -4.38052 0
67.0397 2.03046 0
67.3452 5.07022 0
67.2941 -2.75552 0
67.6957 -0.23083 0
66.6639 -4.0571 0
67.1356 4.69777 0
67.1397 2.80003 0
66.9404 3.95137 0
66.8256 3.84206 0
67.4086 2.26086 0
66.3251 3.39223 0
66.1127 -3.60032 0
67.305 -1.53412 0
65.8722 -3.57414 0
66.8925 -2.13431 0
67.5774 -0.976154 0
65.4826 -2.51562 0
66.399 4.06043 0
67.1599 2.71526 0
66.9048 3.03634 0
65.8122 -2.31395 0
67.5717 -2.01643 0
65.4052 -2.13597 0
65.5512 3.00829 0
67.6484 1.7441 0
65.7969 2.89407 0
65.9491 2.44462 0
67.883 0.191948 0
65.4852 2.4572 0
66.0724 -1.49368 0
67.2645 -2.37052 0
65.6236 -1.29741 0
64.8811 -0.872813 0
66.8897 -1.25676 0
65.0587 -0.725699 0
66.8317 1.1168 0
67.8727 0.533811 0
66.6608 2.27286 0
65.3879 1.91772 0
67.5998 0.319251 0
64.9405 1.21582 0
67.1093 -0.582309 0
67.5795 -0.469678 0
64.937 -0.31616 0
65.2451 -0.166309 0
68.0522 -0.484508 0
66.5107 0.25507 0
65.4985 0.36675 0
67.9129 -0.341533 0
67.793 -4.88067 0
67.5408 -0.92131 0
67.5256 0.337443 0
68.4366 5.3071 0
69.1592 -5.93127 0
69.7478 -0.80039 0
69.1554 1.06748 0
70.6104 6.05092 0
67.3901 1.84481 0
66.0522 3.88172 0
65.6011 -2.56041 0
67.155 -0.9355 0
67.1447 -1.87375 0
67.667 -3.90717 0
67.2548 2.19527 0
67.8138 0.793657 0
68.0771 0.0139257 0
65.3272 1.64652 0
68.7858 0.503872 0
67.8049 1.68191 0
68.2587 -1.42426 0
69.0987 -0.778145 0
71.4092 -0.791465 0
72.7185 -5.45421 0
73.4368 4.70392 0
71.1048 0.307134 0
67.0377 2.1086 0
69.4046 5.83392 0
68.7975 -5.62437 0
68.5457 -2.93821 0
66.7916 -1.70588 0
65.9489 -0.331742 0
67.1566 4.62687 0
67.3585 2.1543 0
67.1918 -2.15508 0
66.2259 -4.00564 0
75.337 -1.34318 0
72.5389 -0.249502 0
72.3529 0.332897 0
75.1133 0.463008 0
67.2415 -2.2087 0
67.9191 0.0832355 0
67.8619 -0.289479 0
68.7205 0.6581 0
70.0821 0.58764 0
70.3921 3.15799 0
69.5021 -1.8799 0
70.7115 -1.26043 0
70.0688 3.91319 0
72.0324 5.37984 0
71.7444 -5.95783 0
69.9934 -1.56131 0
71.7182 0.921085 0
72.9222 2.69562 0
71.8092 -1.63053 0
72.0694 -0.0149845 0
72.5381 0.192973 0
73.9716 2.32348 0
73.2701 -2.70175 0
72.7089 0.00696095 0
70.9866 -0.0119194 0
71.5327 2.95406 0
71.5951 -2.63359 0
71.7254 -0.210991 0
68.5567 -1.63655 0
68.6141 -0.542767 0
67.8995 1.30015 0
68.7641 0.983665 0
67.6643 1.62875 0
67.5228 0.206604 0
67.7321 0.0580397 0
67.4515 -1.9346 0
72.8245 0.238154 0
73.492 -0.037787 0
73.0126 -0.0644696 0
72.6825 0.0076331 0
66.4755 -1.02962 0
68.1122 -1.13374 0
67.1094 -1.30483 0
67.4484 -2.18174 0
67.5597 1.0669 0
67.1105 2.67139 0
70.1578 2.44632 0
69.7738 0.332034 0
70.7922 0.00846363 0
70.1013 -2.32873 0
69.6172 -0.0679126 0
69.5252 -2.84245 0
69.6899 1.49321 0
69.2367 0.46055 0
67.8004 4.02307 0
67.9194 5.5181 0
67.822 -5.16218 0
67.9412 -3.74244 0
68.174 -2.55482 0
67.1121 -2.55013 0
67.9886 4.32494 0
67.5585 2.50806 0
71.9252 -0.333554 0
72.3018 -0.172103 0
71.7849 0.114362 0
71.5904 1.8265 0
69.3366 -4.66743 0
69.8318 -4.36178 0
69.3774 3.9696 0
70.1662 6.06634 0
68.6426 -4.21724 0
69.183 -2.63196 0
69.0048 3.19614 0
68.6199 1.7912 0
69.4435 2.26843 0
68.9266 0.301255 0
69.5405 -0.0155348 0
69.2422 -2.13073 0
66.9123 1.42662 0
67.9403 0.112522 0
70.8201 -0.246013 0
71.0598 -1.46266 0
70.8432 0.884551 0
70.1768 0.128632 0
68.6102 -0.853619 0
67.8185 -1.53888 0
68.5609 2.03901 0
68.1358 1.15977 0
67.6521 0.0312626 0
67.9182 -1.42351 0
67.8166 0.143937 0
67.5964 0.113263 0
65.5648 1.40328 0
66.9274 1.6291 0
72.3237 -1.84135 0
74.8894 -2.61877 0
75.237 1.94218 0
71.9698 1.32316 0
67.0232 -2.50108 0
65.9863 -2.69997 0
68.6438 0.412277 0
68.8334 1.95989 0
69.086 0.226812 0
68.8501 1.92409 0
69.0293 -2.01281 0
68.7619 -0.373596 0
68.972 -1.80716 0
68.9177 -0.0930248 0
69.7047 -0.472937 0
69.5477 -1.3254 0
69.3215 0.821659 0
69.1843 0.0145568 0
67.9328 1.15153 0
67.1944 2.10889 0
66.6886 0.401366 0
65.7296 0.604612 0
67.7564 -1.53343 0
67.6462 -0.980747 0
67.0765 0.488385 0
66.9433 -1.2387 0
74.9153 1.40447 0
73.1467 -0.256596 0
73.7785 0.144573 0
74.2432 -2.06308 0
68.2979 -0.0679606 0
68.3026 -0.640973 0
68.0203 -0.123871 0
68.6735 0.334846 0
68.9427 -0.471344 0
68.9422 -1.19196 0
68.7778 0.759561 0
68.6194 0.291786 0
69.3271 0.479415 0
69.0032 1.26994 0
69.0202 -1.36975 0
69.3948 -0.407766 0
68.3139 -0.971953 0
68.7197 -2.68819 0
68.2256 1.78985 0
67.9984 1.27139 0
68.4673 3.40836 0
67.0364 2.14103 0
67.3924 -2.21638 0
68.174 -3.43709 0
72.4999 0.834624 0
71.8554 2.69262 0
71.9529 -2.62839 0
72.6959 -1.04342 0
66.8972 -2.28699 0
66.9418 -2.34169 0
66.9159 2.54735 0
66.8549 1.73245 0
69.0333 1.01592 0
69.598 0.214743 0
69.7017 -0.200599 0
69.1384 -0.812535 0
71.5381 2.89867 0
73.3514 4.23739 0
73.2974 -5.0798 0
71.9526 -2.11505 0
66.3819 -3.18474 0
67.5573 -3.8197 0
71.1777 -2.16474 0
71.2188 -0.751546 0
70.3573 0.33878 0
72.1629 1.67508 0
66.2299 3.75596 0
66.9654 2.69274 0
68.7235 -0.159209 0
68.8829 -1.44356 0
68.6716 0.89803 0
68.6566 0.222334 0
72.6129 -0.0947581 0
72.7294 -0.50907 0
72.9748 0.602758 0
72.3548 0.118496 0
70.1622 1.10564 0
69.438 0.321669 0
69.9156 -0.25739 0
70.4315 -2.39762 0
70.584 1.12087 0
70.2672 2.30605 0
70.6911 -2.41155 0
71.5839 -1.15822 0
70.2202 -3.16883 0
70.3055 -1.43615 0
69.9837 2.13707 0
71.9434 4.0577 0
69.1366 0.151824 0
69.49 -0.0174425 0
69.6698 -0.133953 0
69.0787 0.00378953 0
69.2733 -0.561389 0
69.0344 -0.0720831 0
68.9609 0.3342 0
69.0566 1.16413 0
69.0093 0.569717 0
68.8683 1.53172 0
69.0226 -1.43724 0
69.3579 -0.326352 0
69.663 2.54343 0
68.9411 2.33102 0
68.5209 -3.44166 0
67.8961 -3.41368 0
72.589 0.259682 0
72.6195 0.118774 0
72.7669 -0.0761551 0
72.75 -0.520278 0
68.9694 3.74888 0
69.1285 2.71911 0
68.7725 -0.956908 0
68.8017 -0.30238 0
68.8323 0.216033 0
68.8519 1.0673 0
66.7727 -1.00574 0
66.8605 -2.09879 0
74.9303 0.25287 0
73.3982 -0.428365 0
73.5906 1.40894 0
75.0716 -0.284401 0
67.1601 -2.64579 0
67.6314 -0.392996 0
67.1891 0.927781 0
67.2292 2.53463 0
68.6832 0.123102 0
68.3587 0.854343 0
68.7135 -0.382837 0
68.868 -0.00690487 0
66.4098 -0.382155 0
64.9259 0.0163888 0
71.2179 2.17768 0
73.2276 1.07107 0
72.5492 -1.14951 0
73.4277 -2.35059 0
67.1113 2.29225 0
66.8395 1.40666 0
67.8467 -0.0608268 0
67.4979 -0.262432 0
69.7772 5.14879 0
68.0924 4.10052 0
69.281 -4.09831 0
69.2072 -6.0958 0
66.9572 1.49813 0
67.4723 2.38282 0
69.3114 1.11121 0
69.5489 2.30401 0
69.4798 -2.13363 0
69.6665 -0.408826 0
69.6668 -0.273294 0
69.4577 -0.230477 0
69.3983 0.185021 0
69.2349 0.622735 0
73.0868 -2.36501 0
73.6652 -0.697393 0
72.7597 1.36299 0
73.41 2.61113 0
67.2495 0.239148 0
66.8987 -1.96355 0
67.3424 1.96565 0
67.7117 2.12039 0
67.9151 -2.60127 0
67.6495 -1.79965 0
68.0094 0.39265 0
67.3818 1.18508 0
70.1934 -4.47551 0
69.1213 -3.38346 0
68.9798 -2.45941 0