# vtk DataFile Version 3.0
Unstructured Grid for Triangles
ASCII
DATASET UNSTRUCTURED_GRID
POINTS 29612 DOUBLE
-0.000272397 1.23686e-05 0
-0.000295789 9.5838e-06 0
-0.000277865 -3.1235e-06 0
0.002024 0.0005 0
0.00203975 0.00049875 0
0.00205 0.0005 0
0.00203975 -0.00049875 0
0.002024 -0.0005 0
0.00205 -0.0005 0
0.0020295 0.0004975 0
0.0020295 -0.0004975 0
0.00201925 0.00049625 0
0.00201925 -0.00049625 0
-0.000529747 -0.000479887 0
-0.00055 -0.0005 0
-0.000524 -0.0005 0
-0.000505983 -0.000484325 0
-0.000498 -0.0005 0
-0.000472 -0.0005 0
-0.000483864 -0.000487761 0
-0.000446 -0.0005 0
-0.000459 -0.000484239 0
-0.000429453 -0.000424878 0
-0.000447486 -0.000420717 0
-0.000441829 -0.000436609 0
-0.000512578 -0.000462101 0
-0.000493078 -0.000453594 0
-0.00050706 -0.000439006 0
-0.000419243 -0.000477545 0
-0.000440307 -0.000471837 0
-0.00043691 -0.000486724 0
-0.000516129 -0.000420948 0
-0.000495355 -0.000415432 0
-0.000511646 -0.00040128 0
-0.000394697 -0.000481197 0
-0.000406302 -0.000455143 0
-0.000537257 -0.000388197 0
-0.000531099 -0.000407297 0
-0.000523982 -0.000388328 0
-0.000370063 -0.000472956 0
-0.000368 -0.0005 0
-0.00035308 -0.000485302 0
-0.0005072 -0.00037867 0
-0.000485506 -0.000383975 0
-0.000490949 -0.000359622 0
-0.000337127 -0.000484331 0
-0.000316 -0.0005 0
-0.000326495 -0.00047415 0
-0.00055 -0.00035 0
-0.000531201 -0.000370361 0
-0.000528367 -0.000346817 0
-0.000363898 -0.000448809 0
-0.000383315 -0.000460336 0
-3.26269e-05 -0.000415503 0
-5.99662e-05 -0.000409556 0
-5.46944e-05 -0.000429488 0
-0.000529747 0.000479887 0
-0.00055 0.0005 0
-0.00055 0.000475 0
-0.00055 0.00045 0
-0.000534834 0.000429171 0
-0.000526943 0.000442611 0
-0.000534026 0.000460176 0
-0.000531099 0.000407297 0
-0.000511672 0.000401178 0
-0.000516129 0.000420948 0
-0.000524 0.0005 0
-0.000505983 0.000484325 0
-0.000531201 0.000370361 0
-0.0005072 0.00037867 0
-0.000523982 0.000388328 0
-0.00048341 0.000469132 0
-0.000483679 0.000487539 0
-0.000528367 0.000346817 0
-0.00055 0.000325 0
-0.000525657 0.000328474 0
-0.000498 0.0005 0
-0.000530382 0.0003125 0
-0.000419243 0.000477545 0
-0.000440015 0.00047335 0
-0.000425917 0.000463678 0
-0.000435138 0.000262661 0
-0.000414982 0.000274462 0
-0.000435654 0.000285217 0
-0.000459 0.000484239 0
-0.000436852 0.000487027 0
-0.000446 0.0005 0
-0.000533308 0.000292503 0
-0.00055 0.000275 0
-0.000523377 0.000276953 0
-0.000425282 0.000446352 0
-0.000409368 0.000435728 0
-0.000406302 0.000455143 0
0.002009 0.000495 0
0.001998 0.0005 0
0.00199875 0.00049375 0
0.0019885 0.0004925 0
0.001972 0.0005 0
0.00197825 0.00049125 0
0.001968 0.00049 0
0.00195775 0.00048875 0
0.001946 0.0005 0
0.0019475 0.0004875 0
0.00193725 0.00048625 0
0.00192 0.0005 0
0.001927 0.000485 0
0.00191675 0.00048375 0
0.0019065 0.0004825 0
0.001894 0.0005 0
0.00189625 0.00048125 0
0.001886 0.00048 0
0.001868 0.0005 0
0.00187575 0.00047875 0
0.0018655 0.0004775 0
0.00185515 0.00048575 0
0.001842 0.0005 0
0.001845 0.000475 0
0.00185525 0.00047625 0
0.00182564 0.0004829 0
0.001816 0.0005 0
0.0018245 0.0004725 0
0.00183475 0.00047375 0
0.00181425 0.00047125 0
0.00180295 0.000482657 0
0.00179 0.0005 0
0.00179375 0.00046875 0
0.001804 0.00047 0
0.00178168 0.000480619 0
0.001764 0.0005 0
0.00177325 0.00046625 0
0.0017835 0.0004675 0
0.00176428 0.000476631 0
0.001763 0.000465 0
0.001738 0.0005 0
0.001751 0.000484164 0
0.00175275 0.00046375 0
0.00174025 0.000475632 0
0.001712 0.0005 0
0.00172615 0.000478449 0
0.001722 0.00046 0
0.00173225 0.00046125 0
0.0017015 0.0004575 0
0.00171243 0.00047381 0
0.00169554 0.000479999 0
0.001686 0.0005 0
0.00167507 0.000479751 0
0.00168498 0.000464861 0
0.00166 0.0005 0
0.0016558 0.000471459 0
0.00167135 0.000462887 0
0.001681 0.000455 0
0.0016605 0.0004525 0
0.00167075 0.00045375 0
0.00164059 0.000461599 0
0.0016394 0.000479551 0
0.00162881 0.00046615 0
0.00162975 0.00044875 0
0.00165025 0.00045125 0
0.00164 0.00045 0
0.00161754 0.000458641 0
0.00161722 0.000478101 0
0.00159956 0.000458294 0
0.00160925 0.00044625 0
0.0016195 0.0004475 0
0.00157667 0.000460322 0
0.00158875 0.00044375 0
0.00159194 0.000480155 0
0.001599 0.000445 0
0.0015785 0.0004425 0
0.00155808 0.000456757 0
0.00155647 0.000476701 0
0.00154059 0.000466642 0
0.00153756 0.000450083 0
0.00154839 0.000450446 0
0.00156825 0.00044125 0
0.00151954 0.000480508 0
0.00154052 0.00048477 0
0.00153 0.0005 0
0.00154775 0.00043875 0
0.00152142 0.000456625 0
0.00152821 0.000445753 0
0.0015375 0.0004375 0
0.001504 0.0005 0
0.00149644 0.000485168 0
0.00151787 0.000443178 0
0.00152725 0.00043625 0
0.00150675 0.00043375 0
0.001517 0.000435 0
0.00148119 0.000450887 0
0.00148072 0.000475756 0
0.00146584 0.000463516 0
0.00150008 0.00046396 0
0.00149351 0.00044543 0
0.0015061 0.000446252 0
0.001476 0.00043 0
0.00148625 0.00043125 0
0.00146492 0.000482975 0
0.00144888 0.000473562 0
0.00146676 0.000444259 0
0.00145255 0.000453656 0
0.00145652 0.000438669 0
0.00141401 0.000479821 0
0.001426 0.0005 0
0.0014 0.0005 0
0.00144374 0.000438862 0
0.0014555 0.0004275 0
0.001435 0.000425 0
0.00144525 0.00042625 0
0.00142746 0.000438121 0
0.00141288 0.000443191 0
0.00141707 0.000432778 0
0.0013921 0.000438992 0
0.00140355 0.00045932 0
0.00138302 0.00045922 0
0.00142912 0.000458869 0
0.00140592 0.000430037 0
0.0014145 0.0004225 0
0.00136458 0.00045869 0
0.00137106 0.00044063 0
0.001394 0.00042 0
0.00138259 0.000428915 0
0.00137484 0.000477094 0
0.00139166 0.000478902 0
0.0013586 0.000478984 0
0.00133449 0.000478649 0
0.00134717 0.000461848 0
0.00137256 0.000425134 0
0.00135323 0.000424541 0
0.00136325 0.00041625 0
0.00136122 0.00042876 0
0.00131206 0.000447284 0
0.00133168 0.000456738 0
0.00131773 0.000465243 0
0.00134756 0.000440343 0
0.00132747 0.000436463 0
0.00133483 0.000426786 0
0.00131081 0.00041867 0
0.00132382 0.000422815 0
0.00131507 0.00043122 0
0.00131059 0.000480123 0
0.0013325 0.0004125 0
0.0012915 0.0004075 0
0.0012982 0.000418199 0
0.00128915 0.000426216 0
0.00126366 0.000447574 0
0.00127331 0.000430908 0
0.00128781 0.000444872 0
0.00125336 0.000428376 0
0.00130218 0.000431077 0
0.00127894 0.000416344 0
0.00124774 0.000469608 0
0.00127668 0.000464148 0
0.00126591 0.00048331 0
0.00126722 0.000418415 0
0.00125768 0.000411931 0
0.00124326 0.000413546 0
0.0012505 0.0004025 0
0.00122408 0.000450118 0
0.00120276 0.000447432 0
0.0012139 0.000432235 0
0.00124336 0.000444132 0
0.00123056 0.000427595 0
0.00122977 0.000409049 0
0.0012185 0.000469217 0
0.00122676 0.000485947 0
0.00120525 0.000486094 0
0.00121479 0.000413153 0
0.00119547 0.000424221 0
0.00120249 0.000407448 0
0.00119925 0.00039625 0
0.00119346 0.000406114 0
0.00117479 0.000447279 0
0.00114726 0.000445259 0
0.0011571 0.000427814 0
0.00119443 0.000466611 0
0.00117447 0.000421596 0
0.00118421 0.00040752 0
0.00117409 0.000404437 0
0.00116775 0.000470073 0
0.001179 0.0004855 0
0.00115473 0.000484802 0
0.0011685 0.0003925 0
0.00117875 0.00039375 0
0.00115454 0.000400551 0
0.001148 0.00039 0
0.00115825 0.00039125 0
0.00111703 0.000423398 0
0.00113786 0.000426731 0
0.00112589 0.000443871 0
0.00113234 0.000406671 0
0.00114754 0.000413371 0
0.001106 0.000442326 0
0.00109703 0.000424261 0
0.0011275 0.0003875 0
0.00113775 0.00038875 0
0.00110211 0.000480875 0
0.00108244 0.000471951 0
0.00109312 0.000458413 0
0.00111755 0.000399116 0
0.0010944 0.000392972 0
0.00110415 0.000405876 0
0.00108839 0.000407536 0
0.00106472 0.000476905 0
0.00107274 0.000457868 0
0.00108011 0.000392415 0
0.00106885 0.000404365 0
0.00106625 0.000388708 0
0.00105286 0.000419254 0
0.00105055 0.000395469 0
0.00104215 0.000439764 0
0.00106346 0.000440629 0
0.00100945 0.000451249 0
0.00102825 0.00045614 0
0.00101189 0.000468452 0
0.00107625 0.00038125 0
0.00105575 0.00037875 0
0.001066 0.00038 0
0.00103352 0.000476905 0
0.00101803 0.00048465 0
0.00103685 0.000389398 0
0.0010245 0.00038825 0
0.00103525 0.00037625 0
0.00101092 0.000399779 0
0.00101267 0.000382619 0
0.00101382 0.00042025 0
0.00103187 0.000405286 0
0.00103359 0.000424605 0
0.000987383 0.00045447 0
0.000999411 0.000435161 0
0.0009744 0.000433145 0
0.0010045 0.0003725 0
0.00101475 0.00037375 0
0.000970845 0.000465215 0
0.000952614 0.000467664 0
0.000961768 0.000449944 0
0.00099729 0.000387704 0
0.000978901 0.00039598 0
0.000985823 0.000381492 0
0.000962289 0.000393709 0
0.000974259 0.000381279 0
0.00097375 0.00036875 0
0.000963045 0.000376631 0
0.000958 0.0005 0
0.000932 0.0005 0
0.000947542 0.00048457 0
0.000949675 0.000385245 0
0.000936214 0.000389472 0
0.000940006 0.000374906 0
0.000966411 0.000412573 0
0.000944241 0.000407079 0
0.000903569 0.000424993 0
0.000921701 0.000402409 0
0.000927439 0.000427744 0
0.000889795 0.000409067 0
0.000903071 0.00040248 0
0.000925447 0.000377721 0
0.00093275 0.00036375 0
0.000907708 0.000387127 0
0.000911303 0.000370839 0
0.000911933 0.000455145 0
0.000930678 0.000473279 0
0.000911886 0.000482603 0
0.000887724 0.000388076 0
0.000899595 0.000375116 0
0.000902 0.00036 0
0.000889241 0.00036954 0
0.000836977 0.000459472 0
0.000836223 0.000483578 0
0.000820467 0.000474142 0
0.000871227 0.000403557 0
0.000861 0.000355 0
0.000868368 0.000365714 0
0.00085484 0.00036588 0
0.000847735 0.000402845 0
0.000823121 0.000421599 0
0.000826582 0.000398147 0
0.000846943 0.00042454 0
0.000838832 0.000378613 0
0.000835569 0.000363808 0
0.000844098 0.00036291 0
0.00085075 0.00035375 0
0.000851465 0.000477164 0
0.00083025 0.00035125 0
0.000822824 0.000368659 0
0.00081446 0.000357362 0
0.000805884 0.000371794 0
0.000753471 0.000477524 0
0.000738313 0.000473927 0
0.000739102 0.000461526 0
0.00079826 0.000358588 0
0.000788607 0.000376287 0
0.000781733 0.000357987 0
0.000816783 0.000384471 0
0.000807975 0.000404095 0
0.000752138 0.000404775 0
0.000767682 0.000417043 0
0.000749617 0.000421803 0
0.000752903 0.000384008 0
0.000738293 0.000393136 0
0.000772614 0.000394048 0
0.00076863 0.000371878 0
0.000765995 0.000354121 0
0.000779 0.000345 0
0.00071811 0.000453059 0
0.000738069 0.000437967 0
0.000752085 0.000365972 0
0.000728123 0.000374583 0
0.000741845 0.000354664 0
[...]
CELL_DATA 58684
VECTORS velocity DOUBLE
65.4681 0.37756 0
72.3073 -0.000175981 0
73.3524 0.000133747 0
72.1707 0.013554 0
73.3386 -0.00674186 0
72.104 0.0380463 0
73.3355 -0.00534364 0
67.8257 0.00121531 0
67.8453 -0.0265682 0
67.9753 4.4711e-05 0
68.0858 -0.000836273 0
68.1335 -0.317246 0
67.8955 -0.111309 0
68.2092 -0.0955256 0
67.872 -0.187348 0
68.3645 -0.120848 0
67.8301 -0.120784 0
68.5955 -0.104916 0
67.9405 -0.314884 0
68.9319 -0.0719292 0
67.8434 -0.123838 0
68.5834 -0.252378 0
72.3312 -1.19652 0
67.7937 0.0117771 0
67.7966 0.0522777 0
67.793 0.0249839 0
67.845 0.136283 0
67.8275 0.0222163 0
67.8363 0.175792 0
67.9317 0.0436892 0
67.8369 0.139707 0
67.8853 0.0329065 0
67.7866 0.133006 0
68.1905 0.112348 0
67.9898 0.800942 0
68.0738 0.0555369 0
67.8551 0.172767 0
68.237 0.247268 0
72.053 0.0166516 0
71.9827 0.00112964 0
71.8681 0.0575746 0
71.8573 0.0385725 0
71.7929 0.00172712 0
71.6964 0.0486957 0
71.6871 0.0591704 0
71.6706 0.0301762 0
71.6262 0.00251109 0
71.5719 0.0585877 0
71.5709 0.0383845 0
71.5379 0.00435307 0
71.4898 0.0465748 0
71.4938 0.0378904 0
71.489 0.017866 0
71.4748 0.00406473 0
71.4647 0.0250363 0
71.4678 0.0141765 0
71.4624 0.00504776 0
71.4631 0.0110894 0
71.4688 0.00262611 0
71.473 -0.0014615 0
71.4802 0.0026601 0
71.4914 -0.0184527 0
71.5072 -0.0148361 0
71.5341 0.00120289 0
71.543 -0.0292851 0
71.5473 -0.0331151 0
71.5657 -0.0207682 0
71.5906 0.00249418 0
71.6003 -0.0361885 0
71.6194 -0.0195882 0
71.6448 0.00367196 0
71.655 -0.0314028 0
71.6709 -0.0178653 0
71.691 -0.0293878 0
71.7056 0.00488192 0
71.718 0.0008401 0
71.7232 0.000263337 0
71.7372 0.00837737 0
71.7416 0.0337518 0
71.7494 0.0540864 0
71.7484 0.0374228 0
71.7366 0.00971904 0
71.7298 0.0464386 0
71.7511 0.0880231 0
71.6803 0.0808223 0
71.7121 0.112967 0
71.7084 0.132764 0
71.6772 0.181735 0
71.621 0.154983 0
71.5514 0.207851 0
71.6553 0.166582 0
71.5821 0.251835 0
71.5229 0.213364 0
71.5204 0.202863 0
71.496 0.293386 0
71.3577 0.277997 0
71.4527 0.239786 0
71.3943 0.321545 0
71.3107 0.358345 0
71.303 0.259044 0
71.2084 0.270831 0
71.2914 0.287647 0
71.1911 0.0774551 0
71.1916 0.29915 0
71.1069 0.263086 0
71.1515 0.296665 0
71.1399 0.0584519 0
71.1059 0.276489 0
71.0549 0.275031 0
71.0868 0.0801331 0
71.0749 0.118161 0
71.0934 0.190037 0
71.0288 0.1617 0
71.0871 0.0249279 0
71.0436 0.0792526 0
71.0739 0.0409631 0
71.1929 0.00400792 0
71.0061 0.0497494 0
71.027 -0.00421223 0
71.1038 -0.0640002 0
71.2441 -0.121068 0
71.1839 -0.0558501 0
71.1098 -0.128597 0
71.3571 -0.154775 0
71.226 -0.227944 0
71.3181 -0.0808866 0
71.2691 -0.204973 0
71.5378 -0.0893483 0
71.3525 -0.278365 0
71.4636 -0.401874 0
71.7975 -0.237114 0
71.6441 -0.345211 0
71.6613 -0.155749 0
71.8339 -0.478539 0
71.73 -0.115367 0
71.6831 -0.480062 0
72.0521 -0.530046 0
72.1846 -0.331522 0
72.2486 -0.405775 0
72.0546 -0.439311 0
72.1506 -0.455986 0
72.094 -0.194495 0
72.3594 -0.497834 0
72.4665 -0.5006 0
72.569 -0.211096 0
72.2903 -0.205172 0
72.437 -0.398301 0
72.511 -0.460197 0
72.3876 -0.0616443 0
72.7571 -0.341321 0
72.7969 -0.30314 0
72.7123 -0.0409505 0
72.5261 -0.151063 0
72.8098 -0.167867 0
72.8489 -0.197862 0
72.5711 -0.0185467 0
72.8856 -0.182436 0
72.8898 -0.0321049 0
72.6938 0.077744 0
72.8668 0.0516268 0
72.6571 0.180857 0
72.8907 0.134728 0
72.5288 0.0715418 0
72.8959 0.165535 0
72.795 0.303916 0
72.4489 0.102035 0
72.6364 0.465292 0
72.5158 0.420972 0
72.4378 0.235631 0
72.1748 0.16431 0
72.6705 0.482171 0
72.5806 0.569208 0
72.1938 0.0800416 0
72.3837 0.557308 0
72.2087 0.545842 0
72.3472 0.36446 0
72.0718 0.168309 0
72.0241 0.20206 0
72.1689 0.625945 0
71.9293 0.0753643 0
71.9699 0.448775 0
71.9137 0.321559 0
71.9114 0.405431 0
71.8966 -0.00233449 0
71.7385 0.162902 0
71.8884 0.179982 0
71.7858 -0.0573709 0
71.78 -0.181125 0
71.6486 0.0972338 0
71.6094 -0.0266763 0
71.8306 -0.0177424 0
71.6005 -0.213985 0
71.6288 -0.270928 0
71.641 -0.279481 0
71.9786 -0.155868 0
71.7341 -0.306532 0
71.6996 -0.632896 0
71.9908 -0.595606 0
71.8721 -0.487306 0
71.8291 -0.853306 0
71.7577 -0.768799 0
71.9817 -0.123488 0
71.9353 -1.06024 0
71.999 -0.999895 0
72.5422 -0.188907 0
72.2178 -1.23437 0
72.0382 -0.717307 0
72.533 -0.719931 0
72.6297 -0.9593 0
72.3893 -1.09741 0
72.3581 -1.37308 0
72.5962 -0.41482 0
72.7728 -1.26306 0
72.6763 -1.55815 0
73.1462 -1.44739 0
72.8646 -0.0132531 0
72.9458 -1.09831 0
73.1523 -1.45132 0
72.7638 -0.291737 0
73.2844 -1.47804 0
73.3003 -0.648504 0
73.3873 -1.55142 0
73.3321 -0.242703 0
73.6462 -0.988557 0
73.608 -1.23603 0
73.1293 -0.138545 0
73.9158 -1.15686 0
73.9896 -0.759406 0
73.598 -0.768748 0
73.5391 -0.345872 0
74.1077 -0.778494 0
73.544 -0.204105 0
73.4586 -0.0319511 0
73.8449 -0.587789 0
74.1769 -0.568528 0
74.1781 -0.56212 0
73.5837 -0.113559 0
74.0034 -0.270279 0
74.0556 -0.145517 0
73.5146 -0.0447531 0
73.9245 -0.0152153 0
74.047 -0.00385391 0
73.8242 -0.111964 0
73.6312 -0.106712 0
73.6959 -0.103621 0
73.9176 0.10816 0
73.6433 -0.00307595 0
73.8203 0.200149 0
73.7095 0.13019 0
73.7468 0.194974 0
73.7454 -0.156526 0
73.695 -0.0249022 0
73.5132 -0.146945 0
73.7862 -0.00434996 0
73.4543 -0.0857735 0
73.5464 -0.415716 0
73.6944 -0.219535 0
73.8018 -0.214844 0
73.4278 -0.331297 0
73.8288 -0.276189 0
74.0059 -0.0611259 0
73.6654 -0.527205 0
73.4261 -0.713843 0
73.4922 -0.836745 0
74.0774 -0.240431 0
73.9568 -0.950849 0
73.5493 -1.02498 0
74.1923 -0.145874 0
73.7197 -1.34601 0
73.9729 -1.57456 0
74.3157 -0.901327 0
74.3332 -0.00460024 0
74.3166 -1.76926 0
74.6433 -0.57438 0
74.8609 -0.646798 0
74.4676 -1.58922 0
74.4791 -1.23488 0
74.9828 -1.76006 0
74.5764 -0.184629 0
74.8564 -1.9456 0
75.2254 -1.2412 0
75.5841 -1.71777 0
74.4161 -0.0500464 0
76.0702 -1.03755 0
76.0143 -0.741872 0
74.2176 0.0486614 0
76.2724 -1.62911 0
76.6401 -0.924069 0
75.0669 0.188001 0
74.5941 0.0222442 0
75.5992 -0.442732 0
76.7781 -0.396407 0
74.3418 0.102233 0
76.7018 0.352379 0
76.8924 -0.52411 0
76.9063 -0.275863 0
74.1426 0.606376 0
75.906 0.734742 0
76.95 0.679718 0
74.0503 0.101413 0
76.7813 1.11392 0
76.6766 1.26273 0
76.1802 2.55706 0
72.9698 0.192776 0
76.9553 2.15514 0
75.4184 1.50629 0
73.898 0.731205 0
73.9277 1.57806 0
76.8262 2.52638 0
76.2709 3.12739 0
73.2925 0.329595 0
76.1701 3.63299 0
73.3247 0.00190446 0
73.3115 -0.000495867 0
73.2811 -0.0212863 0
73.2768 -0.0170496 0
73.2396 -0.0021379 0
73.1783 -0.0353055 0
73.1717 -0.0472301 0
73.1582 -0.0361039 0
73.1035 -0.00464321 0
73.0306 -0.0826693 0
73.0285 -0.0628438 0
72.9731 -0.00883884 0
72.8531 -0.111775 0
72.8514 -0.12111 0
72.8371 -0.0851421 0
72.766 -0.0134465 0
72.6665 -0.162362 0
72.6678 -0.129492 0
72.5957 -0.0221745 0
72.4277 -0.216523 0
72.4294 -0.205706 0
72.2495 -0.273704 0
72.4149 -0.118493 0
72.1768 -0.168407 0
71.9713 -0.267764 0
72.1738 -0.168388 0
71.938 -0.251298 0
71.8653 -0.192631 0
71.7735 -0.289105 0
71.9401 -0.164922 0
71.7121 -0.183394 0
71.6034 -0.295418 0
71.7252 -0.151663 0
71.4813 -0.285813 0
71.4713 -0.244653 0
71.4296 -0.184073 0
71.5416 -0.157245 0
71.43 -0.173707 0
71.3345 -0.139354 0
71.4011 -0.117683 0
71.2732 -0.1953 0
71.3233 -0.0603518 0
71.2541 -0.107818 0
71.3164 -0.107651 0
71.2637 -0.107262 0
71.2322 -0.0683396 0
71.2897 -0.0237972 0
71.2599 -0.060172 0
71.2559 -0.0438373 0
71.2731 -0.0126643 0
71.3474 0.0106075 0
71.3198 0.0202687 0
71.3548 0.0327046 0
71.4071 0.0846342 0
71.4631 0.0416411 0
71.4537 0.0680688 0
71.5127 0.131271 0
71.6109 0.0973232 0
71.5097 0.107101 0
71.6285 0.17271 0
71.639 0.170451 0
71.7049 0.0997892 0
71.7789 0.0649736 0
71.8116 0.150936 0
71.5616 0.051011 0
71.8784 0.168389 0
72.0217 0.159343 0
71.9502 0.153103 0
71.8956 0.0939634 0
72.0691 0.136793 0
72.1014 0.106434 0
72.1329 -0.00673371 0
72.0292 0.110531 0
72.1796 0.0408695 0
72.2244 0.00873968 0
72.0583 0.0292121 0
72.166 -0.00253039 0
72.2871 -0.0722731 0
72.1736 -0.00325173 0
72.2968 -0.0809047 0
72.2986 -0.210813 0
72.2442 -0.126217 0
72.1599 -0.0669048 0
72.2675 -0.221264 0
72.2763 -0.238007 0
72.1101 -0.0653092 0
72.2333 -0.340058 0
72.2093 -0.2305 0
72.1556 -0.305143 0
72.1743 -0.180087 0
72.1443 -0.426455 0
71.9821 -0.54142 0
71.9363 -0.12149 0
72.0201 -0.341695 0
71.8878 -0.565037 0
71.9144 -0.381903 0
71.9864 -0.166721 0
71.8325 -0.499983 0
71.7762 -0.487393 0
71.782 -0.0990515 0
71.7136 -0.165053 0
71.6748 -0.341603 0
71.6421 -0.477052 0
71.7786 -0.267401 0
71.573 -0.375374 0
71.5443 -0.329598 0
71.6152 -0.0517293 0
71.5917 -0.181318 0
71.5018 -0.201936 0
71.5201 -0.11964 0
71.6505 -0.08112 0
71.515 -0.0678973 0
71.4587 0.0456217 0
71.6517 0.0492847 0
71.5277 -0.0173542 0
71.5381 0.187921 0
71.5624 0.211057 0
71.6161 -0.00706586 0
71.5461 0.280577 0
71.6906 0.539033 0
71.743 0.105962 0
71.6936 0.489622 0
71.8978 0.208982 0
71.8316 0.570331 0
71.8599 0.259382 0
71.8524 0.709823 0
72.0159 0.808978 0
72.0329 0.199086 0
71.9991 0.794689 0
72.2662 0.974739 0
72.306 0.214831 0
71.9814 0.63202 0
72.2588 0.804681 0
72.4152 0.959897 0
72.2921 0.13903 0
72.4653 0.84141 0
72.8015 1.05057 0
72.7287 0.801962 0
72.5893 0.224315 0
72.9385 0.73035 0
72.4761 0.310633 0
72.513 0.797397 0
72.9306 0.901828 0
73.2152 0.84156 0
73.2084 0.770122 0
72.5413 0.0157925 0
73.4334 0.681182 0
73.4561 0.585484 0
73.3122 0.301536 0
73.0518 0.135596 0
73.089 0.0643345 0
73.4437 0.401162 0
72.8735 0.191338 0
73.5977 0.169933 0
73.4942 0.171168 0
73.3285 0.0341096 0
72.941 0.0143856 0
73.492 -0.117575 0
73.4386 -0.325321 0
72.9703 -0.0931722 0
73.0754 -0.0312322 0
73.2421 -0.271416 0
73.277 -0.546414 0
73.019 0.0310128 0
73.1751 -0.631725 0
73.117 -0.632603 0
72.7577 -0.0678852 0
72.8225 -0.784688 0
72.7556 -0.719581 0
72.5621 -0.452642 0
72.6595 -0.143275 0
72.7354 -0.175945 0
72.7799 -0.646176 0
72.7519 -0.103626 0
72.4635 -0.767337 0
72.36 -0.589409 0
72.4319 -0.360152 0
72.539 -0.0352283 0
72.1199 -0.339486 0
72.114 -0.27162 0
72.3597 -0.0928349 0
72.2526 0.0410701 0
72.3668 -0.0203381 0
72.0548 -0.0940526 0
72.4421 -0.0479106 0
72.0065 0.163317 0
71.9722 0.272744 0
72.4407 -0.00371443 0
72.0988 0.496062 0
72.0701 0.80938 0
72.0858 0.681524 0
72.583 0.17998 0
72.3212 1.1784 0
72.389 1.34436 0
72.2602 0.397988 0
72.6058 1.0762 0
72.4666 0.323414 0
72.742 1.72063 0
72.8057 0.154406 0
72.8302 1.81756 0
72.8939 1.80932 0
72.6386 0.10682 0
72.8503 1.62823 0
73.4798 2.16391 0
73.7008 2.22348 0
73.3139 0.496373 0
73.8522 2.21905 0
73.9897 2.44127 0
72.9216 1.17138 0
74.2104 1.53882 0
73.6119 0.510669 0
74.3544 2.42833 0
73.7502 0.187267 0
74.6596 2.26982 0
74.8554 2.20915 0
73.4659 0.126373 0
74.588 1.84103 0
75.3328 1.93846 0
75.6137 1.78827 0
74.1527 0.39485 0
75.3721 1.70856 0
75.7621 1.59238 0
74.8269 1.5444 0
75.5924 0.955094 0
74.3844 0.296194 0
75.4797 1.51986 0
74.553 0.116701 0
76.0183 1.32221 0
76.1042 1.06927 0
74.339 0.101549 0
75.8171 0.717106 0
76.1659 0.657692 0
76.2566 0.460347 0
74.8819 0.0468594 0
76.25 0.226713 0
76.2773 0.162449 0
75.0718 0.0195266 0
76.232 0.0830089 0
75.8026 -0.117661 0
75.1525 0.224438 0
74.9196 0.232888 0
76.2043 -0.11721 0
76.1477 -0.300085 0
76.2597 -0.418672 0
74.7887 0.00238697 0
76.0075 -0.537622 0
76.2216 -0.722722 0
74.8962 -0.0194062 0
75.9408 -0.52705 0
76.2335 -0.952064 0
75.67 -0.776488 0
74.9781 -0.252178 0
76.2009 -1.10102 0
76.1981 -1.27093 0
75.5986 -0.428143 0
75.4237 -1.47267 0
74.3607 -1.3334 0
76.1311 -1.34484 0
74.3542 -0.186521 0
76.1817 -1.77154 0
75.655 4.16418 0
76.1046 3.57898 0
72.4019 1.15645 0
75.6237 4.16481 0
74.1729 4.01966 0
75.0894 4.67711 0
72.6864 0.432532 0
74.5372 4.90037 0
73.8458 4.96532 0
71.9427 0.605366 0
73.8402 5.23177 0
76.1816 -2.02054 0
74.4905 -0.111138 0
76.131 -2.21287 0
75.5703 -2.54835 0
75.1312 -2.21032 0
74.0748 -0.138706 0
75.7506 -2.86283 0
73.0966 4.94103 0
75.4639 -3.60528 0
74.0219 -0.725846 0
75.3359 -3.53263 0
74.7872 -4.14267 0
71.2924 1.51366 0
74.6246 -4.14126 0
75.0352 -2.14095 0
74.9979 -3.69581 0
73.7247 -2.79926 0
72.8667 -0.460109 0
74.429 -3.82348 0
74.0323 -4.1528 0
72.6953 5.22151 0
74.0491 -4.15562 0
73.3439 -0.235374 0
73.4666 -4.46155 0
73.1259 -4.88623 0
72.5156 -0.301518 0
72.5098 -5.08001 0
72.6856 -3.64505 0
71.3034 -0.383039 0
71.9616 -5.2028 0
71.729 -2.86844 0
72.601 -2.14026 0
72.2565 -4.4315 0
71.5533 -4.74315 0
73.1147 2.61976 0
70.7168 0.346329 0
72.585 1.77545 0
71.6526 -0.0344265 0
71.3163 -5.13763 0
72.5346 4.98859 0
70.5878 0.250209 0
72.0113 4.27836 0
70.7781 -5.14401 0
71.3968 -1.00655 0
70.2052 -3.72747 0
72.0681 5.6763 0
69.9044 1.39256 0
72.0451 5.62017 0
70.5686 4.90894 0
70.0499 0.276815 0
71.1048 5.0921 0
70.5351 -3.83677 0
71.1359 -0.297454 0
70.2322 -5.27818 0
70.278 -5.11903 0
71.3017 5.43678 0
70.0392 5.33421 0
69.6259 0.0220702 0
70.7294 5.44405 0
69.3631 3.47982 0
69.6612 1.59288 0
69.6174 -5.26839 0
69.9483 -0.668335 0
69.8518 -5.17333 0
69.1855 5.61967 0
69.1993 -4.87231 0
69.4257 -0.667324 0
69.274 -2.12684 0
68.4638 -4.71718 0
70.1735 -2.47948 0
68.317 -4.53471 0
69.129 -0.186331 0
67.7059 -4.38767 0
68.8618 2.01424 0
69.1879 0.311084 0
68.909 4.79121 0
68.8239 0.076659 0
68.7223 5.56061 0
68.6118 5.27947 0
68.6077 0.132113 0
68.0845 4.65945 0
68.4799 0.0945961 0
68.5612 -4.05653 0
69.1363 -0.360673 0
69.2702 4.11328 0
67.9028 0.584423 0
67.8868 4.42188 0
67.6355 -4.39912 0
69.2228 -0.156507 0
66.4906 -3.73025 0
67.8968 -0.440147 0
66.9903 -3.71155 0
68.4131 1.81789 0
67.7949 0.103641 0
69.0095 -3.27596 0
67.7984 -0.119789 0
66.5637 -3.50719 0
67.4344 4.02777 0
67.5371 -2.74001 0
67.8414 -0.261681 0
66.7598 -3.00964 0
68.035 2.23337 0
66.5668 1.46795 0
67.0815 3.51187 0
67.8116 -0.758916 0
66.6933 -3.31599 0
67.7955 0.343073 0
67.0127 4.63874 0
67.9365 -1.57677 0
67.7965 -0.0905325 0
66.4623 -3.02106 0
66.9157 4.22685 0
67.852 0.557691 0
66.7967 3.36511 0
66.6433 3.31401 0
67.8125 0.313109 0
66.1112 2.98081 0
65.8851 -2.66568 0
67.8228 -0.311751 0
65.6357 -2.67906 0
67.1977 -1.28225 0
67.8257 -0.215333 0
65.2894 -1.80205 0
66.0862 3.6872 0
67.8143 0.472198 0
66.9581 2.38522 0
65.6491 -1.58747 0
67.7949 -0.321269 0
65.1729 -1.47312 0
65.2703 2.7485 0
67.7996 0.193286 0
65.5311 2.61663 0
65.7571 2.14799 0
67.8007 0.015013 0
65.2134 2.29538 0
66.0234 -0.912373 0
67.8054 -0.485675 0
65.4936 -0.792705 0
64.6717 -0.432231 0
67.4668 -0.628311 0
64.8328 -0.3366 0
67.241 0.702556 0
67.8003 0.0274824 0
66.6942 1.79826 0
65.1472 1.84953 0
67.7491 -0.00388801 0
64.7294 1.26786 0
67.613 -0.209629 0
67.7945 -0.121482 0
64.7151 0.00888891 0
65.047 0.118661 0
67.8131 -0.0975143 0
66.6033 0.293348 0
65.2975 0.534803 0
67.8041 -0.0845234 0
67.6523 -3.62957 0
67.9242 -0.434065 0
67.7907 0.110714 0
68.2055 4.80258 0
68.8419 -4.87652 0
70.4951 -0.57324 0
69.5068 0.681732 0
70.5475 5.73423 0
67.7859 0.220774 0
65.7443 3.5373 0
65.3915 -1.80601 0
67.7585 -0.213323 0
67.887 -0.534362 0
67.8495 -2.35212 0
67.9167 0.612966 0
67.8667 0.182841 0
67.8173 -0.0440869 0
65.0873 1.62909 0
68.7817 0.326198 0
68.2393 1.07552 0
68.5473 -0.89945 0
69.4631 -0.436768 0
72.5364 -0.682359 0
72.8192 -4.9257 0
74.0786 4.94862 0
72.462 0.260965 0
67.8467 1.13485 0
69.1722 5.41473 0
68.5402 -4.47929 0
68.8893 -1.50185 0
67.3487 -0.98618 0
65.8455 -0.015687 0
66.9756 4.16028 0
68.0404 1.30366 0
68.0294 -1.19418 0
65.9545 -3.02939 0
76.0287 -2.5445 0
73.9164 -0.344744 0
73.8428 0.359948 0
76.8904 1.69222 0
67.9656 -0.671749 0
67.8365 -0.05259 0
67.8114 0.142132 0
68.5784 0.522301 0
71.1195 0.456913 0
71.0356 2.66726 0
70.0365 -1.20104 0
71.741 -0.990622 0
70.3961 3.27675 0
72.3464 5.30607 0
71.6778 -5.19786 0
70.7831 -1.12159 0
73.1267 0.878206 0
74.1331 2.91131 0
72.8629 -1.52839 0
73.3548 -0.0139567 0
74.9024 -0.0570082 0
76.2633 -0.50445 0
75.7528 -1.85138 0
74.3738 0.00219171 0
74.5565 0.0065644 0
76.102 0.995915 0
74.1108 -1.47336 0
74.2115 -0.157882 0
68.7597 -0.960273 0
68.3445 -0.388497 0
68.2043 0.843662 0
68.7314 0.666782 0
68.1093 0.844393 0
67.827 0.222072 0
67.7949 -0.112851 0
68.1293 -0.815951 0
74.4439 0.319526 0
75.333 0.388821 0
74.6206 -0.526802 0
74.6143 -0.0630004 0
66.6862 -0.63199 0
67.841 -0.186156 0
67.6359 -0.380338 0
67.8542 -0.387614 0
67.8092 0.167258 0
67.877 0.704601 0
74.9681 2.0726 0
73.9544 0.308171 0
73.8661 -0.0062658 0
73.4531 -0.0494265 0
70.2934 -0.017654 0
69.9094 -1.73073 0
70.4443 1.18988 0
69.6297 0.30783 0
67.9291 2.88767 0
67.5672 5.07819 0
67.6049 -4.00864 0
68.3287 -2.10231 0
68.5956 -1.38854 0
67.7888 -1.48755 0
67.9853 3.27576 0
68.129 1.55672 0
74.2923 -0.229401 0
74.3852 -0.112308 0
74.8685 0.0327222 0
75.6754 0.514054 0
69.2761 -3.33935 0
69.9245 -3.19473 0
69.6063 3.14903 0
70.0337 5.73799 0
68.8269 -2.51631 0
69.5196 -1.4431 0
69.2918 2.1456 0
68.7745 1.09056 0
73.3784 2.2378 0
73.0902 0.223574 0
73.5882 -0.00504801 0
74.0977 -0.128176 0
67.5618 0.690143 0
67.8053 0.00267883 0
73.8882 -0.11942 0
73.949 -0.658692 0
74.895 0.62571 0
74.1447 0.101838 0
68.6133 -0.636063 0
68.2978 -0.906207 0
68.7263 1.2342 0
68.1198 0.528842 0
67.8503 -0.162971 0
68.1102 -0.556106 0
67.9031 0.284808 0
67.8069 0.119951 0
65.3822 1.36249 0
67.3425 1.08978 0
73.3349 -1.72881 0
75.4483 -3.30282 0
76.5361 2.95092 0
73.3206 1.25969 0
67.3423 -1.50399 0
65.8921 -1.8463 0
72.4464 0.0752292 0
72.0255 0.479951 0
72.676 -0.0490567 0
72.1808 -0.413866 0
73.9478 -0.978851 0
73.2796 -0.118432 0
72.8402 -1.42714 0
72.6891 -0.0181522 0
73.6582 -0.0925295 0
73.723 -0.102792 0
73.5577 0.749109 0
73.3647 0.00958793 0
67.8243 0.133549 0
67.7396 0.380457 0
66.985 0.356256 0
65.547 0.739586 0
67.8204 -0.26892 0
67.7973 -0.186579 0
67.5675 0.166553 0
67.5853 -0.543074 0
76.1893 -1.10668 0
74.6243 -0.8513 0
75.5594 0.608926 0
76.6338 -1.04311 0
67.9885 -0.0549258 0
68.1029 -0.298558 0
67.8258 0.0515692 0
68.1568 0.186348 0
73.4772 -0.103717 0
73.7293 -0.289264 0
72.8094 0.490652 0
72.518 0.0744662 0
72.9223 -0.0633269 0
73.1694 -0.465682 0
72.0333 -1.17688 0
72.1656 -0.249115 0
68.387 -0.617282 0
69.0005 -1.40186 0
68.4912 1.13037 0
68.2394 0.872105 0
68.7607 2.04507 0
67.7279 1.27981 0
68.1621 -1.284 0
68.6089 -1.81984 0
75.3295 -0.112259 0
76.0046 0.668385 0
74.3892 -1.66368 0
74.9863 -0.60796 0
67.8335 -0.839377 0
67.9225 -0.970452 0
67.8514 0.766507 0
67.5684 0.900858 0
73.5127 -0.120069 0
73.0216 0.136711 0
71.8671 -0.0941488 0
71.6747 -0.478979 0
72.535 2.6374 0
74.0917 4.3739 0
73.4702 -4.78989 0
72.8812 -1.85477 0
66.2801 -2.20707 0
67.8167 -2.27822 0
72.0867 -1.7472 0
72.3476 -0.619443 0
71.5459 0.303719 0
73.5026 1.7086 0
65.9461 3.37549 0
67.185 1.98764 0
72.9676 -0.0622094 0
73.4068 -0.70123 0
72.4055 0.0761597 0
72.4356 0.00638388 0
74.1206 -0.184006 0
74.0761 -0.772067 0
74.5691 0.824752 0
73.8637 0.125737 0
71.1825 0.922474 0
70.0779 0.24032 0
70.7506 -0.203337 0
71.1569 -1.80808 0
74.7641 0.775736 0
75.0005 1.78736 0
73.484 -0.559012 0
74.2526 -0.650433 0
70.6446 -2.27527 0
71.1844 -1.0546 0
70.8034 1.76436 0
72.6309 3.80824 0
73.137 0.618085 0
72.7733 0.122833 0
71.8202 -0.0529517 0
71.8559 0.362544 0
72.3132 -0.335789 0
72.5348 -0.0128639 0
72.5637 -0.04258 0
73.0657 -0.340092 0
69.1681 0.347873 0
69.0296 0.912543 0
69.3113 -0.730556 0
69.787 -0.212092 0
70.1978 1.905 0
69.1799 1.37093 0
68.8782 -1.82241 0
68.3672 -1.87868 0
74.9313 -0.172207 0
74.7969 -0.0962461 0
74.53 -0.0187428 0
74.8105 -0.281274 0
69.1774 2.64794 0
69.481 1.78202 0
68.8862 -0.546724 0
68.7839 -0.204092 0
68.5823 0.184086 0
69.0157 0.617584 0
67.1101 -0.575808 0
67.7469 -0.938884 0
76.0674 -1.6305 0
74.7428 -1.00438 0
75.008 1.84449 0
77.0056 0.963571 0
67.9381 -0.71877 0
67.8364 -0.15183 0
67.7702 0.173525 0
67.9311 0.652461 0
68.1149 0.0661913 0
68.1246 0.443867 0
68.3176 -0.237951 0
68.4262 -0.00933098 0
66.3991 -0.0903512 0
64.697 0.28229 0
72.4062 1.97563 0
74.7698 1.40455 0
73.7239 -1.33338 0
74.2342 -2.66809 0
67.7446 1.45372 0
67.4528 0.798898 0
67.797 -0.03764 0
67.7403 -0.0971396 0
69.7392 4.63559 0
68.2285 2.88845 0
69.4286 -2.65805 0
68.8824 -5.06351 0
67.5545 0.540382 0
67.7886 0.319735 0
73.5352 1.01372 0
73.7594 2.3613 0
73.8556 0.0794243 0
73.6523 -0.0839742 0
71.8723 -0.137185 0
72.0437 -0.133883 0
72.8445 -0.0189354 0
73.3658 0.180444 0
75.5566 -1.55827 0
75.7046 -0.192741 0
75.6363 -0.0645848 0
76.2212 -0.222426 0
67.6404 0.0306499 0
67.3442 -1.15711 0
68.0517 0.974354 0