# vtk DataFile Version 3.0
Unstructured Grid for Triangles
ASCII
DATASET UNSTRUCTURED_GRID
POINTS 29612 DOUBLE
-0.000272397 1.23686e-05 0
-0.000295789 9.5838e-06 0
-0.000277865 -3.1235e-06 0
0.002024 0.0005 0
0.00203975 0.00049875 0
0.00205 0.0005 0
0.00203975 -0.00049875 0
0.002024 -0.0005 0
0.00205 -0.0005 0
0.0020295 0.0004975 0
0.0020295 -0.0004975 0
0.00201925 0.00049625 0
0.00201925 -0.00049625 0
-0.000529747 -0.000479887 0
-0.00055 -0.0005 0
-0.000524 -0.0005 0
-0.000505983 -0.000484325 0
-0.000498 -0.0005 0
-0.000472 -0.0005 0
-0.000483864 -0.000487761 0
-0.000446 -0.0005 0
-0.000459 -0.000484239 0
-0.000429453 -0.000424878 0
-0.000447486 -0.000420717 0
-0.000441829 -0.000436609 0
-0.000512578 -0.000462101 0
-0.000493078 -0.000453594 0
-0.00050706 -0.000439006 0
-0.000419243 -0.000477545 0
-0.000440307 -0.000471837 0
-0.00043691 -0.000486724 0
-0.000516129 -0.000420948 0
-0.000495355 -0.000415432 0
-0.000511646 -0.00040128 0
-0.000394697 -0.000481197 0
-0.000406302 -0.000455143 0
-0.000537257 -0.000388197 0
-0.000531099 -0.000407297 0
-0.000523982 -0.000388328 0
-0.000370063 -0.000472956 0
-0.000368 -0.0005 0
-0.00035308 -0.000485302 0
-0.0005072 -0.00037867 0
-0.000485506 -0.000383975 0
-0.000490949 -0.000359622 0
-0.000337127 -0.000484331 0
-0.000316 -0.0005 0
-0.000326495 -0.00047415 0
-0.00055 -0.00035 0
-0.000531201 -0.000370361 0
-0.000528367 -0.000346817 0
-0.000363898 -0.000448809 0
-0.000383315 -0.000460336 0
-3.26269e-05 -0.000415503 0
-5.99662e-05 -0.000409556 0
-5.46944e-05 -0.000429488 0
-0.000529747 0.000479887 0
-0.00055 0.0005 0
-0.00055 0.000475 0
-0.00055 0.00045 0
-0.000534834 0.000429171 0
-0.000526943 0.000442611 0
-0.000534026 0.000460176 0
-0.000531099 0.000407297 0
-0.000511672 0.000401178 0
-0.000516129 0.000420948 0
-0.000524 0.0005 0
-0.000505983 0.000484325 0
-0.000531201 0.000370361 0
-0.0005072 0.00037867 0
-0.000523982 0.000388328 0
-0.00048341 0.000469132 0
-0.000483679 0.000487539 0
-0.000528367 0.000346817 0
-0.00055 0.000325 0
-0.000525657 0.000328474 0
-0.000498 0.0005 0
-0.000530382 0.0003125 0
-0.000419243 0.000477545 0
-0.000440015 0.00047335 0
-0.000425917 0.000463678 0
-0.000435138 0.000262661 0
-0.000414982 0.000274462 0
-0.000435654 0.000285217 0
-0.000459 0.000484239 0
-0.000436852 0.000487027 0
-0.000446 0.0005 0
-0.000533308 0.000292503 0
-0.00055 0.000275 0
-0.000523377 0.000276953 0
-0.000425282 0.000446352 0
-0.000409368 0.000435728 0
-0.000406302 0.000455143 0
0.002009 0.000495 0
0.001998 0.0005 0
0.00199875 0.00049375 0
0.0019885 0.0004925 0
0.001972 0.0005 0
0.00197825 0.00049125 0
0.001968 0.00049 0
0.00195775 0.00048875 0
0.001946 0.0005 0
0.0019475 0.0004875 0
0.00193725 0.00048625 0
0.00192 0.0005 0
0.001927 0.000485 0
0.00191675 0.00048375 0
0.0019065 0.0004825 0
0.001894 0.0005 0
0.00189625 0.00048125 0
0.001886 0.00048 0
0.001868 0.0005 0
0.00187575 0.00047875 0
0.0018655 0.0004775 0
0.00185515 0.00048575 0
0.001842 0.0005 0
0.001845 0.000475 0
0.00185525 0.00047625 0
0.00182564 0.0004829 0
0.001816 0.0005 0
0.0018245 0.0004725 0
0.00183475 0.00047375 0
0.00181425 0.00047125 0
0.00180295 0.000482657 0
0.00179 0.0005 0
0.00179375 0.00046875 0
0.001804 0.00047 0
0.00178168 0.000480619 0
0.001764 0.0005 0
0.00177325 0.00046625 0
0.0017835 0.0004675 0
0.00176428 0.000476631 0
0.001763 0.000465 0
0.001738 0.0005 0
0.001751 0.000484164 0
0.00175275 0.00046375 0
0.00174025 0.000475632 0
0.001712 0.0005 0
0.00172615 0.000478449 0
0.001722 0.00046 0
0.00173225 0.00046125 0
0.0017015 0.0004575 0
0.00171243 0.00047381 0
0.00169554 0.000479999 0
0.001686 0.0005 0
0.00167507 0.000479751 0
0.00168498 0.000464861 0
0.00166 0.0005 0
0.0016558 0.000471459 0
0.00167135 0.000462887 0
0.001681 0.000455 0
0.0016605 0.0004525 0
0.00167075 0.00045375 0
0.00164059 0.000461599 0
0.0016394 0.000479551 0
0.00162881 0.00046615 0
0.00162975 0.00044875 0
0.00165025 0.00045125 0
0.00164 0.00045 0
0.00161754 0.000458641 0
0.00161722 0.000478101 0
0.00159956 0.000458294 0
0.00160925 0.00044625 0
0.0016195 0.0004475 0
0.00157667 0.000460322 0
0.00158875 0.00044375 0
0.00159194 0.000480155 0
0.001599 0.000445 0
0.0015785 0.0004425 0
0.00155808 0.000456757 0
0.00155647 0.000476701 0
0.00154059 0.000466642 0
0.00153756 0.000450083 0
0.00154839 0.000450446 0
0.00156825 0.00044125 0
0.00151954 0.000480508 0
0.00154052 0.00048477 0
0.00153 0.0005 0
0.00154775 0.00043875 0
0.00152142 0.000456625 0
0.00152821 0.000445753 0
0.0015375 0.0004375 0
0.001504 0.0005 0
0.00149644 0.000485168 0
0.00151787 0.000443178 0
0.00152725 0.00043625 0
0.00150675 0.00043375 0
0.001517 0.000435 0
0.00148119 0.000450887 0
0.00148072 0.000475756 0
0.00146584 0.000463516 0
0.00150008 0.00046396 0
0.00149351 0.00044543 0
0.0015061 0.000446252 0
0.001476 0.00043 0
0.00148625 0.00043125 0
0.00146492 0.000482975 0
0.00144888 0.000473562 0
0.00146676 0.000444259 0
0.00145255 0.000453656 0
0.00145652 0.000438669 0
0.00141401 0.000479821 0
0.001426 0.0005 0
0.0014 0.0005 0
0.00144374 0.000438862 0
0.0014555 0.0004275 0
0.001435 0.000425 0
0.00144525 0.00042625 0
0.00142746 0.000438121 0
0.00141288 0.000443191 0
0.00141707 0.000432778 0
0.0013921 0.000438992 0
0.00140355 0.00045932 0
0.00138302 0.00045922 0
0.00142912 0.000458869 0
0.00140592 0.000430037 0
0.0014145 0.0004225 0
0.00136458 0.00045869 0
0.00137106 0.00044063 0
0.001394 0.00042 0
0.00138259 0.000428915 0
0.00137484 0.000477094 0
0.00139166 0.000478902 0
0.0013586 0.000478984 0
0.00133449 0.000478649 0
0.00134717 0.000461848 0
0.00137256 0.000425134 0
0.00135323 0.000424541 0
0.00136325 0.00041625 0
0.00136122 0.00042876 0
0.00131206 0.000447284 0
0.00133168 0.000456738 0
0.00131773 0.000465243 0
0.00134756 0.000440343 0
0.00132747 0.000436463 0
0.00133483 0.000426786 0
0.00131081 0.00041867 0
0.00132382 0.000422815 0
0.00131507 0.00043122 0
0.00131059 0.000480123 0
0.0013325 0.0004125 0
0.0012915 0.0004075 0
0.0012982 0.000418199 0
0.00128915 0.000426216 0
0.00126366 0.000447574 0
0.00127331 0.000430908 0
0.00128781 0.000444872 0
0.00125336 0.000428376 0
0.00130218 0.000431077 0
0.00127894 0.000416344 0
0.00124774 0.000469608 0
0.00127668 0.000464148 0
0.00126591 0.00048331 0
0.00126722 0.000418415 0
0.00125768 0.000411931 0
0.00124326 0.000413546 0
0.0012505 0.0004025 0
0.00122408 0.000450118 0
0.00120276 0.000447432 0
0.0012139 0.000432235 0
0.00124336 0.000444132 0
0.00123056 0.000427595 0
0.00122977 0.000409049 0
0.0012185 0.000469217 0
0.00122676 0.000485947 0
0.00120525 0.000486094 0
0.00121479 0.000413153 0
0.00119547 0.000424221 0
0.00120249 0.000407448 0
0.00119925 0.00039625 0
0.00119346 0.000406114 0
0.00117479 0.000447279 0
0.00114726 0.000445259 0
0.0011571 0.000427814 0
0.00119443 0.000466611 0
0.00117447 0.000421596 0
0.00118421 0.00040752 0
0.00117409 0.000404437 0
0.00116775 0.000470073 0
0.001179 0.0004855 0
0.00115473 0.000484802 0
0.0011685 0.0003925 0
0.00117875 0.00039375 0
0.00115454 0.000400551 0
0.001148 0.00039 0
0.00115825 0.00039125 0
0.00111703 0.000423398 0
0.00113786 0.000426731 0
0.00112589 0.000443871 0
0.00113234 0.000406671 0
0.00114754 0.000413371 0
0.001106 0.000442326 0
0.00109703 0.000424261 0
0.0011275 0.0003875 0
0.00113775 0.00038875 0
0.00110211 0.000480875 0
0.00108244 0.000471951 0
0.00109312 0.000458413 0
0.00111755 0.000399116 0
0.0010944 0.000392972 0
0.00110415 0.000405876 0
0.00108839 0.000407536 0
0.00106472 0.000476905 0
0.00107274 0.000457868 0
0.00108011 0.000392415 0
0.00106885 0.000404365 0
0.00106625 0.000388708 0
0.00105286 0.000419254 0
0.00105055 0.000395469 0
0.00104215 0.000439764 0
0.00106346 0.000440629 0
0.00100945 0.000451249 0
0.00102825 0.00045614 0
0.00101189 0.000468452 0
0.00107625 0.00038125 0
0.00105575 0.00037875 0
0.001066 0.00038 0
0.00103352 0.000476905 0
0.00101803 0.00048465 0
0.00103685 0.000389398 0
0.0010245 0.00038825 0
0.00103525 0.00037625 0
0.00101092 0.000399779 0
0.00101267 0.000382619 0
0.00101382 0.00042025 0
0.00103187 0.000405286 0
0.00103359 0.000424605 0
0.000987383 0.00045447 0
0.000999411 0.000435161 0
0.0009744 0.000433145 0
0.0010045 0.0003725 0
0.00101475 0.00037375 0
0.000970845 0.000465215 0
0.000952614 0.000467664 0
0.000961768 0.000449944 0
0.00099729 0.000387704 0
0.000978901 0.00039598 0
0.000985823 0.000381492 0
0.000962289 0.000393709 0
0.000974259 0.000381279 0
0.00097375 0.00036875 0
0.000963045 0.000376631 0
0.000958 0.0005 0
0.000932 0.0005 0
0.000947542 0.00048457 0
0.000949675 0.000385245 0
0.000936214 0.000389472 0
0.000940006 0.000374906 0
0.000966411 0.000412573 0
0.000944241 0.000407079 0
0.000903569 0.000424993 0
0.000921701 0.000402409 0
0.000927439 0.000427744 0
0.000889795 0.000409067 0
0.000903071 0.00040248 0
0.000925447 0.000377721 0
0.00093275 0.00036375 0
0.000907708 0.000387127 0
0.000911303 0.000370839 0
0.000911933 0.000455145 0
0.000930678 0.000473279 0
0.000911886 0.000482603 0
0.000887724 0.000388076 0
0.000899595 0.000375116 0
0.000902 0.00036 0
0.000889241 0.00036954 0
0.000836977 0.000459472 0
0.000836223 0.000483578 0
0.000820467 0.000474142 0
0.000871227 0.000403557 0
0.000861 0.000355 0
0.000868368 0.000365714 0
0.00085484 0.00036588 0
0.000847735 0.000402845 0
0.000823121 0.000421599 0
0.000826582 0.000398147 0
0.000846943 0.00042454 0
0.000838832 0.000378613 0
0.000835569 0.000363808 0
0.000844098 0.00036291 0
0.00085075 0.00035375 0
0.000851465 0.000477164 0
0.00083025 0.00035125 0
0.000822824 0.000368659 0
0.00081446 0.000357362 0
0.000805884 0.000371794 0
0.000753471 0.000477524 0
0.000738313 0.000473927 0
0.000739102 0.000461526 0
0.00079826 0.000358588 0
0.000788607 0.000376287 0
0.000781733 0.000357987 0
0.000816783 0.000384471 0
0.000807975 0.000404095 0
0.000752138 0.000404775 0
0.000767682 0.000417043 0
0.000749617 0.000421803 0
0.000752903 0.000384008 0
0.000738293 0.000393136 0
0.000772614 0.000394048 0
0.00076863 0.000371878 0
0.000765995 0.000354121 0
0.000779 0.000345 0
0.00071811 0.000453059 0
0.000738069 0.000437967 0
0.000752085 0.000365972 0
0.000728123 0.000374583 0
0.000741845 0.000354664 0
[...]
CELL_DATA 58684
VECTORS velocity DOUBLE
65.1483 0.0659023 0
73.9604 0.000111086 0
73.9399 -0.000688407 0
73.9635 -0.00239113 0
73.8493 -0.00245089 0
73.9614 0.00177704 0
73.7598 -0.0411578 0
67.7915 -0.00076048 0
67.7941 -0.00902664 0
67.8299 -0.0010193 0
67.8772 -0.00208649 0
67.898 -0.244677 0
67.8017 -0.0470158 0
67.9471 -0.0779625 0
67.794 -0.0748165 0
68.0628 -0.112811 0
67.7902 -0.0422934 0
68.2687 -0.105437 0
67.8016 -0.138137 0
68.592 -0.0723114 0
67.7943 -0.0429406 0
68.2567 -0.249224 0
72.2904 -1.23543 0
67.7911 0.00599799 0
67.7929 0.0270154 0
67.7906 0.0132846 0
67.8159 0.0708836 0
67.8096 0.0110878 0
67.807 0.0913253 0
67.8696 0.025097 0
67.8066 0.0784923 0
67.8423 0.0185868 0
67.7777 0.0775475 0
68.0757 0.0961707 0
67.862 0.719664 0
67.9767 0.0428362 0
67.8143 0.10325 0
68.1183 0.218788 0
73.9685 0.00717009 0
73.9652 0.000808353 0
73.95 0.00773235 0
73.95 0.0136554 0
73.948 0.00192329 0
73.9162 0.0174402 0
73.9146 0.028782 0
73.9153 0.029452 0
73.8963 0.00445349 0
73.8581 0.0466736 0
73.8595 0.0473817 0
73.8432 0.00641423 0
73.7741 0.066627 0
73.7749 0.0798265 0
73.7706 0.0584551 0
73.7428 0.0114386 0
73.6831 0.102647 0
73.6892 0.0824671 0
73.6624 0.0154376 0
73.5542 0.144022 0
73.562 0.136036 0
73.5576 0.0857922 0
73.4969 0.00905864 0
73.4448 0.170895 0
73.4177 0.114094 0
73.3311 0.0126729 0
73.278 0.193545 0
73.2764 0.184744 0
73.2287 0.137809 0
73.1978 0.0116247 0
73.1651 0.189102 0
73.1227 0.130693 0
73.086 0.01241 0
73.0508 0.186151 0
73.0187 0.137897 0
72.9611 0.207122 0
72.9567 0.00790164 0
72.9226 0.12322 0
72.8988 0.0819073 0
72.8687 0.00986939 0
72.8384 0.130299 0
72.7758 0.0703579 0
72.8283 0.0952938 0
72.7977 0.00437143 0
72.7841 0.0325928 0
72.7757 0.0682352 0
72.7595 0.00768115 0
72.7501 0.00808372 0
72.7405 0.0350793 0
72.7365 0.0120325 0
72.7509 -0.0366965 0
72.7714 -0.0512525 0
72.7425 -0.0184919 0
72.7629 -0.0628146 0
72.7812 -0.0818156 0
72.7855 -0.0635434 0
72.7973 -0.110211 0
72.862 -0.126459 0
72.8121 -0.110931 0
72.8499 -0.151591 0
72.9004 -0.183647 0
72.8881 -0.140181 0
72.9518 -0.170233 0
72.9059 -0.157426 0
72.9432 -0.0533924 0
72.9745 -0.183483 0
73.0192 -0.169127 0
73.0048 -0.193009 0
72.9627 -0.0339184 0
73.0352 -0.183594 0
73.0765 -0.196205 0
72.9987 -0.0515205 0
73.0117 -0.0827324 0
73.0164 -0.13505 0
73.0815 -0.123653 0
72.9725 -0.00878932 0
73.0545 -0.0603593 0
72.9966 -0.024231 0
72.8152 -0.000879528 0
73.1048 -0.0296359 0
73.0921 0.0063851 0
73.0044 0.0694796 0
72.8174 0.127596 0
72.8523 0.061014 0
73.0081 0.137267 0
72.6898 0.16471 0
72.8937 0.230662 0
72.7033 0.0835764 0
72.8369 0.213401 0
72.4388 0.0964105 0
72.7566 0.28453 0
72.6487 0.420777 0
72.1721 0.250654 0
72.4241 0.368068 0
72.3025 0.172623 0
72.2289 0.511115 0
72.2029 0.120229 0
72.409 0.512339 0
71.9951 0.578057 0
71.7726 0.365039 0
71.6898 0.451743 0
71.9448 0.479386 0
71.8627 0.500488 0
71.7453 0.221292 0
71.6291 0.551524 0
71.5249 0.560579 0
71.2817 0.254545 0
71.5555 0.242931 0
71.5186 0.447559 0
71.4325 0.519614 0
71.3677 0.0713321 0
71.1375 0.397489 0
71.1153 0.366577 0
71.0324 0.0645486 0
71.1989 0.183352 0
71.0542 0.217936 0
71.0079 0.258745 0
71.0839 0.0225784 0
70.9764 0.25228 0
70.93 0.0989591 0
70.9891 -0.0498956 0
70.8967 -0.00731235 0
70.9909 -0.166501 0
70.8828 -0.0770766 0
70.9901 -0.0776562 0
70.8645 -0.117858 0
70.8873 -0.291911 0
71.0395 -0.110001 0
71.0052 -0.482352 0
71.0795 -0.471493 0
71.1204 -0.286072 0
71.2777 -0.240177 0
70.9878 -0.496778 0
71.0635 -0.609741 0
71.2343 -0.115697 0
71.2166 -0.685169 0
71.369 -0.721515 0
71.1941 -0.483352 0
71.4323 -0.27528 0
71.4926 -0.360567 0
71.4394 -0.847154 0
71.5493 -0.202769 0
71.6227 -0.731873 0
71.6845 -0.651611 0
71.7257 -0.79633 0
71.5845 -0.0046105 0
71.9674 -0.620943 0
71.6904 -0.505358 0
71.8845 -0.275285 0
71.9649 -0.22134 0
72.111 -0.630939 0
72.206 -0.535483 0
71.7422 -0.0987457 0
72.2399 -0.341759 0
72.2693 -0.378863 0
72.2618 -0.349763 0
71.8594 0.0325436 0
72.1213 -0.170618 0
72.444 -0.0694034 0
72.0913 0.094044 0
72.1087 0.0687723 0
72.337 0.14258 0
72.438 0.0445042 0
71.8574 0.00652577 0
72.3585 0.319086 0
72.3291 0.30756 0
71.7302 0.0709334 0
72.1781 0.540348 0
72.1696 0.19003 0
71.8658 0.290761 0
71.8771 0.430695 0
72.0378 0.478757 0
72.1655 0.662143 0
71.7567 0.146399 0
71.8648 0.603231 0
71.9608 0.810253 0
71.6615 0.702825 0
71.6882 0.00628629 0
71.748 0.468531 0
71.661 0.696504 0
71.704 0.0854456 0
71.5873 0.687412 0
71.6133 0.140297 0
71.5342 0.72515 0
71.7331 -0.0656422 0
71.394 0.220535 0
71.4265 0.380239 0
71.7593 -0.0278298 0
71.2696 0.243458 0
71.3674 -0.211435 0
71.6198 -0.0594776 0
71.7343 -0.201714 0
71.2795 -0.317536 0
71.9377 -0.331123 0
72.3774 -0.0723332 0
71.4774 -0.325321 0
71.3272 -0.570161 0
71.4296 -0.656469 0
72.2803 -0.418914 0
71.7905 -0.931238 0
71.8928 -1.20678 0
72.6034 -0.158129 0
72.2377 -1.4624 0
71.9457 -1.49648 0
72.2236 -1.09487 0
72.7158 -0.616033 0
72.7867 -0.787902 0
72.2783 -1.80698 0
73.2882 -0.00477704 0
72.5123 -2.05984 0
72.8047 -2.05272 0
72.6981 -2.16788 0
73.6253 -0.573553 0
73.2507 -1.8884 0
73.6356 -2.01146 0
73.8316 -0.0058284 0
73.7971 -2.44279 0
74.3349 -2.15559 0
73.7937 -1.45114 0
73.8539 -0.685291 0
74.1989 -2.39787 0
74.0747 -0.843509 0
74.3336 -0.0938018 0
74.2554 -1.68945 0
74.7136 -2.1802 0
75.0538 -2.05225 0
74.491 -0.352472 0
75.162 -1.5229 0
75.2062 -1.86843 0
74.5934 -0.136657 0
75.3977 -1.81791 0
75.6698 -1.54527 0
75.4281 -0.905424 0
74.6686 -0.000572474 0
75.8635 -1.18354 0
75.2852 -0.321728 0
75.5445 -0.256585 0
75.7831 -1.01448 0
75.6284 -0.697358 0
76.1995 -0.680283 0
74.8772 0.0170879 0
76.1543 -0.785493 0
75.9043 -0.257344 0
76.2529 -0.156587 0
74.7598 -0.000862824 0
76.2549 0.331297 0
76.1393 0.469087 0
74.2116 0.0859329 0
76.354 0.120437 0
76.3876 0.407311 0
75.0509 0.626966 0
74.7628 0.259604 0
75.7872 0.300329 0
76.3731 0.740094 0
74.3872 0.160635 0
76.177 1.22735 0
76.3113 0.828972 0
76.3198 0.952064 0
73.9953 0.737547 0
75.5395 1.37081 0
76.2039 1.43174 0
73.974 0.12282 0
76.0927 1.71334 0
76.0509 1.73207 0
75.5597 2.66439 0
72.7307 0.199876 0
76.1389 2.38867 0
74.9533 1.79228 0
73.7135 0.828431 0
73.6188 1.63051 0
76.0481 2.6412 0
75.6086 3.09522 0
73.0698 0.335866 0
75.531 3.49383 0
73.7211 -0.0165708 0
73.6853 -0.00138843 0
73.5911 -0.0425881 0
73.5845 -0.0403386 0
73.5453 -0.00196651 0
73.4537 -0.0431792 0
73.451 -0.0517559 0
73.4406 -0.0352266 0
73.4122 -0.00396653 0
73.3708 -0.0450576 0
73.3721 -0.0335665 0
73.3656 -0.00403752 0
73.329 -0.0360876 0
73.3359 -0.0341079 0
73.3365 -0.0225528 0
73.3375 -0.00539823 0
73.3301 -0.0232343 0
73.3346 -0.016072 0
73.3465 -0.0040733 0
73.3492 -0.00804148 0
73.3578 -0.00271523 0
73.3832 0.00862926 0
73.3652 -0.00298634 0
73.4011 0.0110154 0
73.4405 0.0206303 0
73.4144 0.0123435 0
73.4598 0.023682 0
73.4804 0.0167664 0
73.5038 0.0336665 0
73.4697 0.019847 0
73.5283 0.0163616 0
73.5518 0.0327763 0
73.5271 0.0189388 0
73.583 0.0227238 0
73.5884 0.0108669 0
73.5957 0.00773275 0
73.5737 0.0155813 0
73.5992 -0.00198287 0
73.6074 -0.0146767 0
73.599 -0.000109783 0
73.5966 -0.0540992 0
73.5878 -0.0336585 0
73.5834 -0.049109 0
73.5892 -0.0266362 0
73.5728 -0.0857191 0
73.5038 -0.127598 0
73.4397 -0.0808976 0
73.5073 -0.119588 0
73.4178 -0.157754 0
73.4039 -0.195309 0
73.2619 -0.114848 0
73.3226 -0.152296 0
73.2347 -0.206745 0
73.1366 -0.315626 0
73.0737 -0.152153 0
73.0617 -0.244968 0
72.9777 -0.348481 0
72.8523 -0.212316 0
73.0079 -0.259076 0
72.8148 -0.388132 0
72.8056 -0.37065 0
72.7089 -0.215011 0
72.5879 -0.142661 0
72.5472 -0.307715 0
72.9356 -0.118973 0
72.4667 -0.345374 0
72.2536 -0.339461 0
72.3435 -0.314118 0
72.4089 -0.196996 0
72.1794 -0.312742 0
72.1302 -0.263557 0
72.0036 -0.0669083 0
72.2183 -0.258702 0
72.0123 -0.192603 0
71.9456 -0.165367 0
72.1241 -0.0757273 0
71.9848 -0.1179 0
71.8283 -0.0865708 0
71.9388 -0.0902782 0
71.7911 -0.0605702 0
71.7435 0.0583411 0
71.797 0.00869365 0
71.7819 0.0220947 0
71.7382 0.0921182 0
71.7174 0.0978364 0
71.7835 0.0307667 0
71.7339 0.205487 0
71.7505 0.128437 0
71.7391 0.210117 0
71.75 0.106457 0
71.7716 0.310253 0
71.8766 0.472475 0
71.8351 0.10809 0
71.8216 0.280067 0
71.9592 0.516856 0
71.9025 0.365547 0
71.8196 0.138176 0
71.9946 0.490503 0
72.0387 0.516365 0
71.946 0.108736 0
72.0366 0.194671 0
72.1165 0.407996 0
72.1852 0.574191 0
71.993 0.294007 0
72.258 0.496635 0
72.3005 0.496546 0
72.1592 0.115193 0
72.2023 0.269632 0
72.3815 0.432815 0
72.3474 0.319367 0
72.0699 0.119935 0
72.374 0.303212 0
72.4774 0.221868 0
72.1683 0.0440164 0
72.3763 0.23032 0
72.4834 0.131975 0
72.4122 0.0185281 0
72.1414 0.0772131 0
72.494 0.00312609 0
72.4 -0.22691 0
72.0879 -0.0134549 0
72.3484 -0.270765 0
71.9936 -0.111604 0
72.2218 -0.364474 0
72.0257 -0.127512 0
72.2839 -0.425643 0
72.1345 -0.595951 0
71.8232 -0.143009 0
72.1154 -0.583142 0
71.8842 -0.784351 0
71.5369 -0.172491 0
72.0851 -0.445226 0
71.815 -0.658121 0
71.7353 -0.803281 0
71.5469 -0.1098 0
71.6399 -0.710591 0
71.3391 -0.91128 0
71.3379 -0.693838 0
71.2335 -0.18206 0
71.1019 -0.628817 0
71.373 -0.257923 0
71.5569 -0.671772 0
71.1634 -0.783437 0
70.8949 -0.715327 0
70.8926 -0.654924 0
71.2657 -0.00733039 0
70.684 -0.544703 0
70.6552 -0.446644 0
70.6965 -0.173928 0
70.8055 -0.0634913 0
70.7835 0.0241292 0
70.6311 -0.270043 0
70.9339 -0.144595 0
70.5136 -0.00595994 0
70.5649 -0.0066785 0
70.6765 0.127146 0
70.8451 0.0378082 0
70.5585 0.311905 0
70.6719 0.56881 0
70.8841 0.217368 0
70.8129 0.146821 0
70.7723 0.507621 0
70.845 0.868594 0
70.7917 0.0372083 0
70.9637 0.972651 0
71.0176 1.02205 0
71.1387 0.164234 0
71.3959 1.34585 0
71.4637 1.28756 0
71.6991 1.0801 0
71.4201 0.400699 0
71.3281 0.439331 0
71.4152 1.25152 0
71.2212 0.256035 0
71.8761 1.58298 0
72.0102 1.43166 0
71.9909 1.24056 0
71.6035 0.158492 0
72.4775 1.44642 0
72.5042 1.4593 0
72.122 0.713441 0
72.6349 0.950686 0
72.1992 0.551407 0
72.6539 1.29006 0
71.9743 0.347536 0
73.0092 1.34556 0
73.0698 1.21319 0
72.0321 0.275279 0
73.0978 0.931917 0
73.5048 0.878774 0
73.3022 0.964933 0
72.7736 0.194712 0
73.7369 0.624138 0
73.7473 0.60552 0
72.8887 0.680572 0
73.326 0.383686 0
72.8826 0.343333 0
73.771 0.344473 0
72.9336 0.0732633 0
73.7693 0.176445 0
73.7086 0.109604 0
72.7494 0.0677594 0
73.5997 0.132737 0
73.6386 -0.114363 0
73.5715 -0.155858 0
73.2558 0.0841412 0
73.5308 -0.168696 0
73.4845 -0.252659 0
73.4529 0.141708 0
73.4747 0.0353616 0
73.33 0.0748658 0
73.378 -0.208675 0
73.3278 0.0345214 0
73.2944 -0.0859279 0
73.2576 -0.012623 0
73.213 0.0243362 0
73.4531 0.103741 0
73.2231 0.34804 0
73.2493 0.471427 0
73.4781 0.0922197 0
73.3102 0.461836 0
73.3622 0.809259 0
73.4289 0.174118 0
73.8106 0.679359 0
73.5778 0.110805 0
73.4454 0.641468 0
73.6844 0.0578054 0
73.5985 1.11326 0
73.6571 1.17983 0
73.5648 0.0379947 0
73.9479 1.08184 0
73.9692 1.41685 0
74.2973 1.55194 0
74.055 0.131478 0
74.5736 1.70238 0
74.6955 1.54371 0
74.2782 0.236898 0
74.8793 1.78965 0
74.9509 0.855891 0
74.0594 0.384682 0
73.9094 0.231309 0
75.2944 1.79312 0
75.3669 1.20384 0
75.8805 1.45147 0
74.0113 0.00407486 0
75.7312 0.784282 0
76.2914 0.932833 0
74.1921 0.0498607 0
75.4567 0.699555 0
76.5761 0.453803 0
75.6305 0.0992601 0
74.4338 0.0730935 0
76.6002 0.104905 0
76.7319 -0.222205 0
75.043 0.403693 0
75.6687 -0.870325 0
74.3978 -1.12195 0
76.4585 -0.506917 0
74.1133 -0.0924661 0
76.8 -1.13903 0
75.1072 3.93088 0
75.4772 3.45429 0
72.0962 1.0928 0
75.0767 3.93126 0
73.7511 3.79147 0
74.6177 4.36817 0
72.42 0.422878 0
74.1233 4.5636 0
73.4826 4.61822 0
71.6636 0.563517 0
73.4881 4.85531 0
76.8032 -1.56795 0
74.1717 -0.0382992 0
76.7405 -1.87067 0
75.9665 -2.3903 0
75.4472 -1.9792 0
73.9069 -0.106135 0
76.2141 -2.81684 0
72.7643 4.58764 0
75.8417 -3.79116 0
73.9814 -0.610475 0
75.6816 -3.68986 0
75.0079 -4.43779 0
71.0114 1.38081 0
74.8123 -4.42953 0
75.3531 -1.95837 0
75.2631 -3.89716 0
73.8516 -2.90121 0
72.8309 -0.448686 0
74.6004 -4.0622 0
74.131 -4.44335 0
72.4037 4.83872 0
74.1512 -4.44734 0
73.2998 -0.217908 0
73.4927 -4.79055 0
73.0937 -5.26276 0
72.4673 -0.301569 0
72.4097 -5.46708 0
72.665 -3.90169 0
71.1687 -0.405605 0
71.8016 -5.60437 0
71.6231 -3.09529 0
72.5898 -2.22841 0
72.1558 -4.77372 0
71.385 -5.11756 0
72.7525 2.48418 0
70.4627 0.309652 0
72.2758 1.68446 0
71.5385 -0.035147 0
71.1018 -5.53336 0
72.2422 4.60662 0
70.3363 0.222693 0
71.7001 3.93942 0
70.525 -5.54386 0
71.2687 -1.07973 0
69.9396 -4.06852 0
71.8156 5.2514 0
69.6671 1.21059 0
71.7939 5.19322 0
70.327 4.49535 0
69.8209 0.242218 0
70.8668 4.67753 0
70.2974 -4.17114 0
70.9743 -0.321969 0
69.9424 -5.6929 0
69.9895 -5.5256 0
71.0653 5.01095 0
69.8228 4.89925 0
69.4198 0.0178429 0
70.5078 5.01141 0
69.1306 3.09236 0
69.433 1.37502 0
69.2939 -5.68198 0
69.655 -0.731257 0
69.5407 -5.58234 0
68.9892 5.1684 0
68.8592 -5.2745 0
69.089 -0.71057 0
68.9282 -2.29739 0
68.1039 -5.11079 0
69.911 -2.72542 0
67.9516 -4.91932 0
68.783 -0.191754 0
67.3213 -4.76411 0
68.661 1.71137 0
69.0167 0.262148 0
68.6931 4.35634 0
68.6794 0.0623451 0
68.5291 5.11031 0
68.4077 4.83112 0
68.4805 0.113152 0
67.8684 4.21764 0
68.3532 0.0842042 0
68.1941 -4.41976 0
68.7888 -0.369739 0
69.0412 3.70627 0
67.8039 0.441988 0
67.6665 3.97643 0
67.2512 -4.77435 0
68.8838 -0.160736 0
66.0916 -4.08247 0
67.7723 -0.181966 0
66.5825 -4.05451 0
68.2206 1.53366 0
67.7844 0.0723179 0
68.6607 -3.5803 0
67.7854 -0.0444067 0
66.1692 -3.84997 0
67.2054 3.58449 0
67.1501 -2.99892 0
67.7825 -0.0895678 0
66.3669 -3.31006 0
67.8054 1.8896 0
66.2912 1.16567 0
66.841 3.07632 0
67.5613 -0.607752 0
66.3062 -3.6509 0
67.7379 0.238246 0
66.8043 4.19371 0
67.5423 -1.6341 0
67.7852 -0.0333991 0
66.0621 -3.3389 0
66.6947 3.7882 0
67.7503 0.441672 0
66.5439 2.93708 0
66.3983 2.88657 0
67.7349 0.235606 0
65.8611 2.56671 0
65.4905 -2.99022 0
67.7514 -0.113769 0
65.2376 -3.00783 0
66.8156 -1.41801 0
67.7687 -0.069701 0
64.9242 -2.12411 0
65.8526 3.25969 0
67.6954 0.399341 0
66.6878 2.00751 0
65.2737 -1.89593 0
67.6678 -0.121277 0
64.8021 -1.79395 0
65.0279 2.34207 0
67.6939 0.186085 0
65.2787 2.21784 0
65.4929 1.76324 0
67.7818 0.0382378 0
64.9469 1.90344 0
65.6435 -1.16394 0
67.6264 -0.261179 0
65.1293 -1.08492 0
64.3349 -0.764612 0
67.1609 -0.639736 0
64.5017 -0.673867 0
66.9652 0.590754 0
67.7138 0.0841562 0
66.4117 1.4529 0
64.8649 1.47054 0
67.6098 0.0840683 0
64.4348 0.89941 0
67.3914 -0.121825 0
67.7682 -0.0401921 0
64.3926 -0.329015 0
64.7195 -0.207948 0
67.7298 0.00866256 0
66.2832 0.0728614 0
64.9895 0.19216 0
67.7477 -0.00190662 0
67.262 -3.96209 0
67.7884 -0.191701 0
67.7765 0.0757758 0
67.9937 4.35656 0
68.4888 -5.27785 0
70.2663 -0.629474 0
69.3061 0.582315 0
70.3384 5.28652 0
67.7173 0.185321 0
65.5133 3.11639 0
65.0081 -2.1151 0
67.7479 -0.083997 0
67.7338 -0.263509 0
67.447 -2.53146 0
67.8078 0.484763 0
67.8126 0.119602 0
67.7217 0.0458657 0
64.7966 1.25722 0
68.6426 0.274317 0
68.0804 0.968048 0
68.1985 -0.903556 0
69.1264 -0.466574 0
72.4984 -0.687992 0
72.7515 -5.30186 0
73.7033 4.60259 0
72.1932 0.248695 0
67.6515 1.04484 0
68.9723 4.9683 0
68.1762 -4.86404 0
68.5167 -1.55801 0
66.9979 -1.03965 0
65.5068 -0.304256 0
66.7527 3.72108 0
67.8587 1.17899 0
67.6766 -1.19116 0
65.5495 -3.35619 0
76.5879 -2.37115 0
73.8121 -0.277467 0
73.6667 0.403187 0
76.102 2.09694 0
67.7513 -0.452965 0
67.7943 -0.0178855 0
67.7967 0.0749216 0
68.4423 0.457238 0
70.8553 0.410765 0
70.7527 2.4243 0
69.753 -1.31827 0
71.6469 -1.04864 0
70.1251 2.95831 0
72.0748 4.90711 0
71.4949 -5.59876 0
70.5861 -1.22418 0
72.8672 0.89335 0
73.7307 2.82815 0
72.8611 -1.54445 0
73.2911 -0.0119845 0
74.2742 0.0914881 0
76.021 1.22622 0
76.2536 -0.144454 0
74.4809 0.00925202 0
73.7016 0.00165008 0
73.7331 1.34886 0
75.6001 -1.42094 0
74.6621 -0.141618 0
68.4074 -0.968418 0
68.0394 -0.367869 0
68.0686 0.769701 0
68.5839 0.568067 0
67.9652 0.772968 0
67.7948 0.122981 0
67.785 -0.0424075 0
67.8517 -0.698657 0
74.4172 0.461015 0
75.2194 0.854399 0
74.4311 -0.240182 0
74.1814 -0.00927356 0
66.3216 -0.78412 0
67.7398 -0.0397045 0
67.4151 -0.249074 0
67.7439 -0.145336 0
67.7667 0.127249 0
67.7401 0.605966 0
73.2543 0.124777 0
73.409 0.0568683 0
74.0503 -0.00651926 0
73.7128 -2.26992 0
70.0415 -0.01913 0
69.6184 -1.89456 0
70.1965 1.06757 0
69.4246 0.265073 0
67.6899 2.48314 0
67.37 4.62867 0
67.2208 -4.36766 0
67.9397 -2.21903 0
68.225 -1.4175 0
67.3992 -1.54473 0
67.7517 2.86119 0
67.9443 1.35164 0
74.7447 -0.201453 0
74.7423 -0.0374436 0
73.9961 0.0669258 0
74.0231 0.84463 0
68.9404 -3.65574 0
69.6368 -3.5014 0
69.3658 2.80529 0
69.8308 5.28969 0
68.4572 -2.7194 0
69.1865 -1.55212 0
69.0743 1.86202 0
68.6119 0.916707 0
73.6538 -0.0842515 0
73.1161 0.0436394 0
73.0108 -0.00905187 0
71.7416 -1.26243 0
67.338 0.638111 0
67.7565 0.0412104 0
74.1132 -0.224205 0
74.8143 -1.03388 0
73.7116 0.264442 0
73.4753 0.0290936 0
68.2731 -0.634118 0
67.9708 -0.869804 0
68.5529 1.04153 0
67.9935 0.455682 0
67.7953 -0.0593553 0
67.8826 -0.390137 0
67.838 0.163686 0
67.7881 0.0718839 0
65.0806 1.00872 0
67.0791 0.92812 0
73.3745 -1.75126 0
75.8293 -3.39791 0
75.8147 2.95554 0
73.0197 1.25407 0
66.9567 -1.64402 0
65.4989 -2.12451 0
72.4493 0.1836 0
73.1519 1.05744 0
71.2747 0.117043 0
72.3751 1.55516 0
71.3353 0.0357747 0
71.8093 -0.0478716 0
71.8529 0.727096 0
71.6911 0.00665438 0
73.216 -0.438688 0
72.9755 -1.1781 0
73.366 0.0868312 0
73.1744 -0.00220111 0
67.765 0.125353 0
67.6002 0.356198 0
66.7013 0.233466 0
65.2403 0.402092 0
67.6848 -0.080143 0
67.7513 -0.0594644 0
67.3638 0.198934 0
67.3154 -0.504482 0
76.6697 0.15445 0
74.5421 -0.516292 0
75.2725 1.03619 0
76.3142 0.528728 0
67.833 -0.0313638 0
67.8706 -0.195378 0
67.8087 0.0260848 0
68.0479 0.159394 0
72.1766 -0.19844 0
71.8721 -0.425869 0
73.0732 0.177327 0
72.6179 0.107966 0
70.9438 0.167964 0
70.8845 0.79281 0
72.3419 0.40501 0
71.8242 0.0720052 0
68.0651 -0.578791 0
68.6439 -1.4478 0
68.3395 0.968845 0
68.108 0.786352 0
68.5537 1.723 0
67.5144 1.14738 0
67.8053 -1.29979 0
68.2271 -1.89958 0
74.4657 0.389402 0
74.0971 1.34311 0
75.9405 -1.01546 0
75.5667 -0.0535525 0
67.5618 -0.726473 0
67.622 -0.886937 0
67.7053 0.692287 0
67.3409 0.821853 0
70.5982 0.318406 0
70.7965 -0.0588566 0
71.826 -0.0427573 0
72.3566 -0.194771 0
72.2024 2.46032 0
73.6964 4.08328 0
73.4788 -5.16019 0
72.8899 -1.9206 0
65.8845 -2.4841 0
67.4039 -2.43719 0
72.0264 -1.85346 0
72.2915 -0.641363 0
71.2756 0.282833 0
73.1861 1.72137 0
65.7055 2.95488 0
66.9232 1.66644 0
71.7118 0.00565992 0
71.5686 0.101649 0
72.2857 0.48226 0
72.1364 0.142581 0
73.9391 -0.121385 0
74.0191 -0.611377 0
74.3734 1.04223 0
73.7478 0.152147 0
70.9117 0.83962 0
69.8532 0.213059 0
70.5487 -0.222319 0
71.0047 -1.95627 0
73.6547 0.300405 0
73.3607 0.270428 0
74.7202 -2.12256 0
75.0031 -0.618242 0
70.4326 -2.49118 0
71.0353 -1.13968 0
70.5368 1.59636 0
72.2816 3.52402 0
70.9095 -0.509858 0
71.0234 -0.0960035 0
71.7469 -0.0801398 0
71.7803 -0.743804 0
71.806 0.11235 0
71.7115 0.00614662 0
71.5235 0.156148 0
70.964 0.634803 0
68.9956 0.291877 0
68.8587 0.763131 0
68.9681 -0.759734 0
69.4806 -0.230142 0
69.941 1.68904 0
68.9762 1.14808 0
68.4983 -1.92819 0
67.9811 -1.9608 0
74.3186 0.0850514 0
74.256 0.0365916 0
74.6984 0.115544 0
75.1766 0.0886483 0
68.953 2.31147 0
69.2595 1.53519 0
68.5385 -0.551193 0
68.4454 -0.204494 0
68.4524 0.161648 0
68.8548 0.514186 0
66.7616 -0.6752 0
67.4347 -0.890243 0
76.5378 -0.902601 0
74.7608 -0.706007 0
74.5611 1.99258 0
76.2061 1.64483 0
67.7185 -0.487546 0
67.7878 -0.0533771 0
67.7499 0.123343 0
67.8229 0.519624 0
68.0061 0.051378 0
68.0116 0.390536 0
68.0279 -0.21474 0
68.119 -0.0105212 0
66.0619 -0.333026 0
64.3837 -0.0619221 0
72.1047 1.86636 0
74.4535 1.58575 0
73.7397 -1.2422 0
74.4099 -2.68531 0
67.5236 1.28062 0
67.2029 0.702962 0
67.7832 0.00189035 0
67.588 0.0251569 0
69.5147 4.21793 0
67.9962 2.48699 0
69.0989 -2.91079 0
68.5315 -5.47262 0
67.3642 0.531026 0
67.6835 0.278518 0
73.4142 0.0765745 0
73.5499 -0.221448 0
72.4372 -1.74871 0
73.1662 -0.365808 0
71.8235 -0.0205529 0
71.8346 0.0372012 0
70.9891 0.064615 0
70.6456 -0.0226737 0
76.2857 -0.238275 0
75.6924 0.479497 0
74.7727 0.698718 0
75.4923 1.53026 0
67.4531 0.102119 0
66.9712 -1.24813 0
67.8961 0.898915 0