# vtk DataFile Version 3.0
Unstructured Grid for Triangles
ASCII
DATASET UNSTRUCTURED_GRID
POINTS 29612 DOUBLE
-0.000272397 1.23686e-05 0
-0.000295789 9.5838e-06 0
-0.000277865 -3.1235e-06 0
0.002024 0.0005 0
0.00203975 0.00049875 0
0.00205 0.0005 0
0.00203975 -0.00049875 0
0.002024 -0.0005 0
0.00205 -0.0005 0
0.0020295 0.0004975 0
0.0020295 -0.0004975 0
0.00201925 0.00049625 0
0.00201925 -0.00049625 0
-0.000529747 -0.000479887 0
-0.00055 -0.0005 0
-0.000524 -0.0005 0
-0.000505983 -0.000484325 0
-0.000498 -0.0005 0
-0.000472 -0.0005 0
-0.000483864 -0.000487761 0
-0.000446 -0.0005 0
-0.000459 -0.000484239 0
-0.000429453 -0.000424878 0
-0.000447486 -0.000420717 0
-0.000441829 -0.000436609 0
-0.000512578 -0.000462101 0
-0.000493078 -0.000453594 0
-0.00050706 -0.000439006 0
-0.000419243 -0.000477545 0
-0.000440307 -0.000471837 0
-0.00043691 -0.000486724 0
-0.000516129 -0.000420948 0
-0.000495355 -0.000415432 0
-0.000511646 -0.00040128 0
-0.000394697 -0.000481197 0
-0.000406302 -0.000455143 0
-0.000537257 -0.000388197 0
-0.000531099 -0.000407297 0
-0.000523982 -0.000388328 0
-0.000370063 -0.000472956 0
-0.000368 -0.0005 0
-0.00035308 -0.000485302 0
-0.0005072 -0.00037867 0
-0.000485506 -0.000383975 0
-0.000490949 -0.000359622 0
-0.000337127 -0.000484331 0
-0.000316 -0.0005 0
-0.000326495 -0.00047415 0
-0.00055 -0.00035 0
-0.000531201 -0.000370361 0
-0.000528367 -0.000346817 0
-0.000363898 -0.000448809 0
-0.000383315 -0.000460336 0
-3.26269e-05 -0.000415503 0
-5.99662e-05 -0.000409556 0
-5.46944e-05 -0.000429488 0
-0.000529747 0.000479887 0
-0.00055 0.0005 0
-0.00055 0.000475 0
-0.00055 0.00045 0
-0.000534834 0.000429171 0
-0.000526943 0.000442611 0
-0.000534026 0.000460176 0
-0.000531099 0.000407297 0
-0.000511672 0.000401178 0
-0.000516129 0.000420948 0
-0.000524 0.0005 0
-0.000505983 0.000484325 0
-0.000531201 0.000370361 0
-0.0005072 0.00037867 0
-0.000523982 0.000388328 0
-0.00048341 0.000469132 0
-0.000483679 0.000487539 0
-0.000528367 0.000346817 0
-0.00055 0.000325 0
-0.000525657 0.000328474 0
-0.000498 0.0005 0
-0.000530382 0.0003125 0
-0.000419243 0.000477545 0
-0.000440015 0.00047335 0
-0.000425917 0.000463678 0
-0.000435138 0.000262661 0
-0.000414982 0.000274462 0
-0.000435654 0.000285217 0
-0.000459 0.000484239 0
-0.000436852 0.000487027 0
-0.000446 0.0005 0
-0.000533308 0.000292503 0
-0.00055 0.000275 0
-0.000523377 0.000276953 0
-0.000425282 0.000446352 0
-0.000409368 0.000435728 0
-0.000406302 0.000455143 0
0.002009 0.000495 0
0.001998 0.0005 0
0.00199875 0.00049375 0
0.0019885 0.0004925 0
0.001972 0.0005 0
0.00197825 0.00049125 0
0.001968 0.00049 0
0.00195775 0.00048875 0
0.001946 0.0005 0
0.0019475 0.0004875 0
0.00193725 0.00048625 0
0.00192 0.0005 0
0.001927 0.000485 0
0.00191675 0.00048375 0
0.0019065 0.0004825 0
0.001894 0.0005 0
0.00189625 0.00048125 0
0.001886 0.00048 0
0.001868 0.0005 0
0.00187575 0.00047875 0
0.0018655 0.0004775 0
0.00185515 0.00048575 0
0.001842 0.0005 0
0.001845 0.000475 0
0.00185525 0.00047625 0
0.00182564 0.0004829 0
0.001816 0.0005 0
0.0018245 0.0004725 0
0.00183475 0.00047375 0
0.00181425 0.00047125 0
0.00180295 0.000482657 0
0.00179 0.0005 0
0.00179375 0.00046875 0
0.001804 0.00047 0
0.00178168 0.000480619 0
0.001764 0.0005 0
0.00177325 0.00046625 0
0.0017835 0.0004675 0
0.00176428 0.000476631 0
0.001763 0.000465 0
0.001738 0.0005 0
0.001751 0.000484164 0
0.00175275 0.00046375 0
0.00174025 0.000475632 0
0.001712 0.0005 0
0.00172615 0.000478449 0
0.001722 0.00046 0
0.00173225 0.00046125 0
0.0017015 0.0004575 0
0.00171243 0.00047381 0
0.00169554 0.000479999 0
0.001686 0.0005 0
0.00167507 0.000479751 0
0.00168498 0.000464861 0
0.00166 0.0005 0
0.0016558 0.000471459 0
0.00167135 0.000462887 0
0.001681 0.000455 0
0.0016605 0.0004525 0
0.00167075 0.00045375 0
0.00164059 0.000461599 0
0.0016394 0.000479551 0
0.00162881 0.00046615 0
0.00162975 0.00044875 0
0.00165025 0.00045125 0
0.00164 0.00045 0
0.00161754 0.000458641 0
0.00161722 0.000478101 0
0.00159956 0.000458294 0
0.00160925 0.00044625 0
0.0016195 0.0004475 0
0.00157667 0.000460322 0
0.00158875 0.00044375 0
0.00159194 0.000480155 0
0.001599 0.000445 0
0.0015785 0.0004425 0
0.00155808 0.000456757 0
0.00155647 0.000476701 0
0.00154059 0.000466642 0
0.00153756 0.000450083 0
0.00154839 0.000450446 0
0.00156825 0.00044125 0
0.00151954 0.000480508 0
0.00154052 0.00048477 0
0.00153 0.0005 0
0.00154775 0.00043875 0
0.00152142 0.000456625 0
0.00152821 0.000445753 0
0.0015375 0.0004375 0
0.001504 0.0005 0
0.00149644 0.000485168 0
0.00151787 0.000443178 0
0.00152725 0.00043625 0
0.00150675 0.00043375 0
0.001517 0.000435 0
0.00148119 0.000450887 0
0.00148072 0.000475756 0
0.00146584 0.000463516 0
0.00150008 0.00046396 0
0.00149351 0.00044543 0
0.0015061 0.000446252 0
0.001476 0.00043 0
0.00148625 0.00043125 0
0.00146492 0.000482975 0
0.00144888 0.000473562 0
0.00146676 0.000444259 0
0.00145255 0.000453656 0
0.00145652 0.000438669 0
0.00141401 0.000479821 0
0.001426 0.0005 0
0.0014 0.0005 0
0.00144374 0.000438862 0
0.0014555 0.0004275 0
0.001435 0.000425 0
0.00144525 0.00042625 0
0.00142746 0.000438121 0
0.00141288 0.000443191 0
0.00141707 0.000432778 0
0.0013921 0.000438992 0
0.00140355 0.00045932 0
0.00138302 0.00045922 0
0.00142912 0.000458869 0
0.00140592 0.000430037 0
0.0014145 0.0004225 0
0.00136458 0.00045869 0
0.00137106 0.00044063 0
0.001394 0.00042 0
0.00138259 0.000428915 0
0.00137484 0.000477094 0
0.00139166 0.000478902 0
0.0013586 0.000478984 0
0.00133449 0.000478649 0
0.00134717 0.000461848 0
0.00137256 0.000425134 0
0.00135323 0.000424541 0
0.00136325 0.00041625 0
0.00136122 0.00042876 0
0.00131206 0.000447284 0
0.00133168 0.000456738 0
0.00131773 0.000465243 0
0.00134756 0.000440343 0
0.00132747 0.000436463 0
0.00133483 0.000426786 0
0.00131081 0.00041867 0
0.00132382 0.000422815 0
0.00131507 0.00043122 0
0.00131059 0.000480123 0
0.0013325 0.0004125 0
0.0012915 0.0004075 0
0.0012982 0.000418199 0
0.00128915 0.000426216 0
0.00126366 0.000447574 0
0.00127331 0.000430908 0
0.00128781 0.000444872 0
0.00125336 0.000428376 0
0.00130218 0.000431077 0
0.00127894 0.000416344 0
0.00124774 0.000469608 0
0.00127668 0.000464148 0
0.00126591 0.00048331 0
0.00126722 0.000418415 0
0.00125768 0.000411931 0
0.00124326 0.000413546 0
0.0012505 0.0004025 0
0.00122408 0.000450118 0
0.00120276 0.000447432 0
0.0012139 0.000432235 0
0.00124336 0.000444132 0
0.00123056 0.000427595 0
0.00122977 0.000409049 0
0.0012185 0.000469217 0
0.00122676 0.000485947 0
0.00120525 0.000486094 0
0.00121479 0.000413153 0
0.00119547 0.000424221 0
0.00120249 0.000407448 0
0.00119925 0.00039625 0
0.00119346 0.000406114 0
0.00117479 0.000447279 0
0.00114726 0.000445259 0
0.0011571 0.000427814 0
0.00119443 0.000466611 0
0.00117447 0.000421596 0
0.00118421 0.00040752 0
0.00117409 0.000404437 0
0.00116775 0.000470073 0
0.001179 0.0004855 0
0.00115473 0.000484802 0
0.0011685 0.0003925 0
0.00117875 0.00039375 0
0.00115454 0.000400551 0
0.001148 0.00039 0
0.00115825 0.00039125 0
0.00111703 0.000423398 0
0.00113786 0.000426731 0
0.00112589 0.000443871 0
0.00113234 0.000406671 0
0.00114754 0.000413371 0
0.001106 0.000442326 0
0.00109703 0.000424261 0
0.0011275 0.0003875 0
0.00113775 0.00038875 0
0.00110211 0.000480875 0
0.00108244 0.000471951 0
0.00109312 0.000458413 0
0.00111755 0.000399116 0
0.0010944 0.000392972 0
0.00110415 0.000405876 0
0.00108839 0.000407536 0
0.00106472 0.000476905 0
0.00107274 0.000457868 0
0.00108011 0.000392415 0
0.00106885 0.000404365 0
0.00106625 0.000388708 0
0.00105286 0.000419254 0
0.00105055 0.000395469 0
0.00104215 0.000439764 0
0.00106346 0.000440629 0
0.00100945 0.000451249 0
0.00102825 0.00045614 0
0.00101189 0.000468452 0
0.00107625 0.00038125 0
0.00105575 0.00037875 0
0.001066 0.00038 0
0.00103352 0.000476905 0
0.00101803 0.00048465 0
0.00103685 0.000389398 0
0.0010245 0.00038825 0
0.00103525 0.00037625 0
0.00101092 0.000399779 0
0.00101267 0.000382619 0
0.00101382 0.00042025 0
0.00103187 0.000405286 0
0.00103359 0.000424605 0
0.000987383 0.00045447 0
0.000999411 0.000435161 0
0.0009744 0.000433145 0
0.0010045 0.0003725 0
0.00101475 0.00037375 0
0.000970845 0.000465215 0
0.000952614 0.000467664 0
0.000961768 0.000449944 0
0.00099729 0.000387704 0
0.000978901 0.00039598 0
0.000985823 0.000381492 0
0.000962289 0.000393709 0
0.000974259 0.000381279 0
0.00097375 0.00036875 0
0.000963045 0.000376631 0
0.000958 0.0005 0
0.000932 0.0005 0
0.000947542 0.00048457 0
0.000949675 0.000385245 0
0.000936214 0.000389472 0
0.000940006 0.000374906 0
0.000966411 0.000412573 0
0.000944241 0.000407079 0
0.000903569 0.000424993 0
0.000921701 0.000402409 0
0.000927439 0.000427744 0
0.000889795 0.000409067 0
0.000903071 0.00040248 0
0.000925447 0.000377721 0
0.00093275 0.00036375 0
0.000907708 0.000387127 0
0.000911303 0.000370839 0
0.000911933 0.000455145 0
0.000930678 0.000473279 0
0.000911886 0.000482603 0
0.000887724 0.000388076 0
0.000899595 0.000375116 0
0.000902 0.00036 0
0.000889241 0.00036954 0
0.000836977 0.000459472 0
0.000836223 0.000483578 0
0.000820467 0.000474142 0
0.000871227 0.000403557 0
0.000861 0.000355 0
0.000868368 0.000365714 0
0.00085484 0.00036588 0
0.000847735 0.000402845 0
0.000823121 0.000421599 0
0.000826582 0.000398147 0
0.000846943 0.00042454 0
0.000838832 0.000378613 0
0.000835569 0.000363808 0
0.000844098 0.00036291 0
0.00085075 0.00035375 0
0.000851465 0.000477164 0
0.00083025 0.00035125 0
0.000822824 0.000368659 0
0.00081446 0.000357362 0
0.000805884 0.000371794 0
0.000753471 0.000477524 0
0.000738313 0.000473927 0
0.000739102 0.000461526 0
0.00079826 0.000358588 0
0.000788607 0.000376287 0
0.000781733 0.000357987 0
0.000816783 0.000384471 0
0.000807975 0.000404095 0
0.000752138 0.000404775 0
0.000767682 0.000417043 0
0.000749617 0.000421803 0
0.000752903 0.000384008 0
0.000738293 0.000393136 0
0.000772614 0.000394048 0
0.00076863 0.000371878 0
0.000765995 0.000354121 0
0.000779 0.000345 0
0.00071811 0.000453059 0
0.000738069 0.000437967 0
0.000752085 0.000365972 0
0.000728123 0.000374583 0
0.000741845 0.000354664 0
[...]
CELL_DATA 58684
VECTORS velocity DOUBLE
64.7775 0.543237 0
72.7441 -8.16971e-05 0
73.1734 9.08266e-05 0
72.6735 0.00628724 0
73.1797 -0.000965513 0
72.6389 0.0187101 0
73.1886 0.00338249 0
67.7691 -0.00334771 0
67.7618 -0.00719929 0
67.76 -0.00299128 0
67.7824 -0.0044663 0
67.7892 -0.222932 0
67.7495 -0.0457384 0
67.8253 -0.0704426 0
67.7476 -0.0728356 0
67.9088 -0.0992114 0
67.7669 -0.0356929 0
68.0636 -0.0891978 0
67.7368 -0.135533 0
68.3216 -0.0616728 0
67.7733 -0.0355557 0
68.0554 -0.211676 0
71.7119 -1.24833 0
67.7781 0.0012963 0
67.7634 0.0135926 0
67.7791 0.00639619 0
67.7421 0.0365182 0
67.7478 0.00436827 0
67.7475 0.0510907 0
67.7276 0.0191948 0
67.7634 0.0382558 0
67.7282 0.0104812 0
67.738 0.0430494 0
67.8071 0.0943389 0
67.6333 0.697168 0
67.7557 0.0353081 0
67.77 0.0477236 0
67.8323 0.215562 0
72.6131 0.00791593 0
72.5783 2.35991e-05 0
72.5222 0.0258134 0
72.5163 0.0161524 0
72.4855 -0.000505228 0
72.4431 0.0180811 0
72.4375 0.0203349 0
72.4283 0.00583554 0
72.4107 -0.0013964 0
72.3912 0.0137095 0
72.3889 0.00360959 0
72.376 -0.00207095 0
72.3688 0.000190329 0
72.3683 -0.00853381 0
72.3651 -0.012512 0
72.3642 -0.00453249 0
72.3738 -0.0244306 0
72.3709 -0.0239543 0
72.3737 -0.00656525 0
72.4055 -0.0479078 0
72.4029 -0.0505336 0
72.4025 -0.0355472 0
72.4246 -0.00490765 0
72.4476 -0.078522 0
72.4574 -0.0579814 0
72.4991 -0.00732176 0
72.5229 -0.100073 0
72.5224 -0.101459 0
72.547 -0.0768248 0
72.5689 -0.00721251 0
72.5847 -0.112109 0
72.6086 -0.0783164 0
72.6317 -0.00805828 0
72.6527 -0.115736 0
72.6713 -0.0868429 0
72.7073 -0.130865 0
72.7075 -0.0055841 0
72.7289 -0.0779633 0
72.7423 -0.0516053 0
72.7555 -0.00687527 0
72.7763 -0.0790199 0
72.8062 -0.0373879 0
72.7811 -0.0558354 0
72.7814 -0.0030374 0
72.7804 -0.00926523 0
72.8009 -0.0267135 0
72.7616 0.0164526 0
72.7874 0.0234071 0
72.8035 0.00791703 0
72.7889 0.0381684 0
72.7269 0.0710372 0
72.6862 0.0967465 0
72.7592 0.0564733 0
72.7098 0.118273 0
72.6399 0.129231 0
72.6451 0.109165 0
72.636 0.172716 0
72.4954 0.188761 0
72.5573 0.172128 0
72.5335 0.222782 0
72.4328 0.27114 0
72.3944 0.210174 0
72.2624 0.255147 0
72.4005 0.227347 0
72.2179 0.080469 0
72.2692 0.273683 0
72.1451 0.252783 0
72.2073 0.288284 0
72.1107 0.0706269 0
72.1419 0.2806 0
72.0645 0.303012 0
71.9874 0.123174 0
71.9924 0.152603 0
72.0588 0.234256 0
71.9395 0.240381 0
71.9347 0.0718157 0
71.8539 0.160071 0
71.8891 0.0964935 0
71.8533 -0.000843125 0
71.8318 0.143874 0
71.802 0.122655 0
71.7631 0.0410342 0
71.8189 -0.0400878 0
71.8469 0.0188231 0
71.7597 -0.00306001 0
71.8533 -0.0853232 0
71.774 -0.0916214 0
71.852 -0.0381289 0
71.7809 -0.0963743 0
71.9394 -0.0646312 0
71.8232 -0.142701 0
71.8738 -0.260124 0
72.0936 -0.187808 0
71.9778 -0.260813 0
72.003 -0.12261 0
72.0957 -0.391048 0
72.0454 -0.0924979 0
71.9887 -0.374199 0
72.242 -0.483384 0
72.3713 -0.323013 0
72.4289 -0.407433 0
72.2689 -0.395086 0
72.3185 -0.434814 0
72.3039 -0.188229 0
72.4961 -0.510612 0
72.5889 -0.544999 0
72.7235 -0.274255 0
72.462 -0.237023 0
72.5641 -0.444893 0
72.6423 -0.526132 0
72.5513 -0.0818106 0
72.9006 -0.463201 0
72.9331 -0.457648 0
72.9341 -0.132102 0
72.7219 -0.219716 0
72.969 -0.303349 0
73.027 -0.369455 0
72.7699 -0.0438962 0
73.0689 -0.394086 0
73.1317 -0.262115 0
72.9907 -0.0493074 0
73.1402 -0.114348 0
73.0011 0.073425 0
73.1843 -0.0908057 0
72.8671 0.045874 0
73.2028 -0.0337682 0
73.2081 0.162932 0
72.8308 0.0814423 0
73.112 0.355631 0
73.0221 0.372081 0
72.9128 0.239603 0
72.6348 0.209859 0
73.1581 0.369418 0
73.1041 0.480872 0
72.6519 0.101465 0
72.9565 0.609434 0
72.796 0.651129 0
72.9049 0.437754 0
72.5604 0.246493 0
72.509 0.329486 0
72.7716 0.777737 0
72.4207 0.182196 0
72.579 0.679101 0
72.5215 0.620156 0
72.5076 0.75723 0
72.3731 0.0057006 0
72.2868 0.572079 0
72.4869 0.475828 0
72.2973 0.240145 0
72.2582 0.169919 0
72.1931 0.577273 0
72.1092 0.466877 0
72.2842 0.0803396 0
72.0885 0.268359 0
72.0886 0.302255 0
72.0858 0.262827 0
72.3925 -0.0751377 0
72.1779 0.0967813 0
72.0118 -0.0555892 0
72.3318 -0.246584 0
72.2556 -0.190185 0
72.1449 -0.314892 0
72.0402 -0.191363 0
72.3768 -0.0415942 0
72.1828 -0.530086 0
72.2196 -0.533131 0
72.97 -0.156748 0
72.4403 -0.860577 0
72.3256 -0.374818 0
72.8471 -0.590741 0
72.9125 -0.856638 0
72.6321 -0.823186 0
72.5032 -1.04674 0
73.009 -0.388498 0
72.9265 -1.12535 0
72.808 -1.33485 0
73.2869 -1.42166 0
73.3881 -0.0119396 0
73.2388 -1.11838 0
73.3112 -1.50319 0
73.2209 -0.306627 0
73.4505 -1.58683 0
73.7199 -0.751639 0
73.5793 -1.67953 0
73.9049 -0.33628 0
73.9468 -1.23926 0
73.8652 -1.54452 0
73.7144 -0.187879 0
74.249 -1.53548 0
74.4867 -1.21711 0
74.1004 -1.10275 0
74.1299 -0.540111 0
74.6143 -1.37313 0
74.2009 -0.373597 0
74.1534 -0.0515412 0
74.3407 -0.990506 0
74.778 -1.14983 0
74.8885 -1.23002 0
74.2923 -0.22639 0
74.7828 -0.752685 0
74.9696 -0.663862 0
74.1891 -0.0687441 0
74.8849 -0.412851 0
75.0071 -0.549377 0
74.5962 -0.449502 0
74.3292 -0.187348 0
74.4218 -0.174521 0
74.9272 -0.297471 0
74.1939 -0.00777909 0
74.8672 -0.18019 0
74.7849 -0.0975656 0
74.8142 -0.0881131 0
74.2492 -0.104844 0
74.5546 -0.0682366 0
74.4376 -0.0425157 0
74.1518 -0.00853182 0
74.3859 0.0842283 0
74.2315 -0.0762612 0
74.3878 -0.131584 0
74.2597 -0.132547 0
74.2332 0.00861599 0
74.2867 -0.159293 0
74.1314 -0.0354738 0
74.2795 -0.200334 0
74.049 -0.208949 0
73.966 -0.302924 0
74.1999 -0.14578 0
74.1822 -0.469021 0
73.9359 -0.454927 0
74.1537 -0.0882128 0
73.9608 -0.665439 0
74.0287 -0.899671 0
74.3174 -0.547291 0
74.1007 -0.00638068 0
74.1849 -1.14484 0
74.4486 -0.380405 0
74.5854 -0.449647 0
74.3079 -1.04579 0
74.3449 -0.838023 0
74.5555 -1.28772 0
74.2486 -0.111717 0
74.4778 -1.40844 0
74.806 -0.947375 0
75.01 -1.42593 0
74.1494 -0.0321706 0
75.4188 -0.945108 0
75.3816 -0.691495 0
73.7264 0.0492463 0
75.6017 -1.46078 0
75.9345 -0.864319 0
74.5524 0.196988 0
74.1712 0.051432 0
75.074 -0.353927 0
76.0737 -0.435024 0
73.8575 0.1015 0
76.0451 0.198162 0
76.211 -0.643498 0
76.2226 -0.424452 0
73.5902 0.574077 0
75.3017 0.606578 0
76.3098 0.486485 0
73.5204 0.0927677 0
76.1516 0.877238 0
76.0283 1.08708 0
75.5888 2.3229 0
72.3932 0.183308 0
76.3638 1.88802 0
74.8376 1.3674 0
73.3337 0.692841 0
73.3457 1.49401 0
76.2426 2.24995 0
75.7117 2.88844 0
72.7081 0.31296 0
75.6344 3.36104 0
73.1908 0.00247579 0
73.1903 0.000440641 0
73.1881 -0.00171339 0
73.1869 -0.00141363 0
73.1763 0.000549917 0
73.1599 -0.00709139 0
73.1554 -0.011309 0
73.15 -0.00913144 0
73.1273 0.000600267 0
73.0956 -0.028346 0
73.0922 -0.0211598 0
73.0637 -0.000289296 0
73.0072 -0.0432823 0
73.0012 -0.0479892 0
72.9911 -0.0326838 0
72.951 -0.00134486 0
72.8967 -0.070204 0
72.8929 -0.055479 0
72.848 -0.00484724 0
72.7554 -0.100874 0
72.7495 -0.0967942 0
72.6411 -0.132502 0
72.7344 -0.0525937 0
72.5919 -0.0816513 0
72.464 -0.129843 0
72.5779 -0.0809889 0
72.4318 -0.122406 0
72.382 -0.0906025 0
72.3194 -0.145357 0
72.4239 -0.085405 0
72.2683 -0.0857578 0
72.1964 -0.148359 0
72.2736 -0.0785691 0
72.1037 -0.139282 0
72.0922 -0.113957 0
72.0615 -0.0840125 0
72.1412 -0.0786397 0
72.0526 -0.0759907 0
71.9846 -0.0505774 0
72.0329 -0.0529684 0
71.9378 -0.0608686 0
71.9572 -0.0101031 0
71.9195 -0.0196763 0
71.9629 -0.0373714 0
71.9177 -0.0045354 0
71.9122 0.0362185 0
71.9438 0.029645 0
71.9214 0.031332 0
71.9378 0.0624919 0
71.9448 0.096712 0
72.0062 0.0725654 0
71.9769 0.0933294 0
72.0283 0.129511 0
72.0886 0.212876 0
72.1138 0.108253 0
72.1308 0.175102 0
72.1923 0.259392 0
72.2517 0.173816 0
72.155 0.196035 0
72.3044 0.312509 0
72.3073 0.309266 0
72.3521 0.193796 0
72.4405 0.131426 0
72.4829 0.285565 0
72.2016 0.088575 0
72.5598 0.331081 0
72.7408 0.358557 0
72.649 0.315366 0
72.5769 0.191196 0
72.7941 0.344277 0
72.8342 0.292724 0
72.8704 0.0854134 0
72.7335 0.279986 0
72.922 0.242745 0
72.9854 0.230584 0
72.7769 0.082213 0
72.9157 0.159245 0
73.0997 0.17683 0
72.943 0.125543 0
73.1259 0.139135 0
73.1553 0.0178689 0
73.0579 0.0457952 0
72.9915 -0.00428128 0
73.1327 -0.0358192 0
73.1774 -0.01823 0
72.9326 -0.0207134 0
73.137 -0.141006 0
73.0575 -0.0852185 0
73.085 -0.172937 0
73.0348 -0.0688648 0
73.0621 -0.275809 0
72.8905 -0.474427 0
72.7477 -0.096911 0
72.8834 -0.269393 0
72.7766 -0.534751 0
72.7652 -0.385443 0
72.8146 -0.1402 0
72.7099 -0.521053 0
72.6182 -0.575443 0
72.4988 -0.12292 0
72.4186 -0.223382 0
72.4484 -0.47825 0
72.4091 -0.659995 0
72.5117 -0.337393 0
72.2799 -0.586922 0
72.1985 -0.608027 0
72.0559 -0.144405 0
72.1853 -0.333414 0
72.0272 -0.570625 0
72.0125 -0.443638 0
72.1957 -0.165071 0
71.9704 -0.446431 0
71.8302 -0.360285 0
71.9082 -0.0991368 0
71.9097 -0.359081 0
71.7459 -0.30565 0
71.7627 -0.156461 0
71.9659 -0.118873 0
71.7026 -0.162717 0
71.7109 0.0393066 0
71.8614 -0.0350389 0
71.7308 0.1198 0
71.907 0.0516395 0
71.7885 0.220946 0
71.9002 0.0433665 0
71.7609 0.241028 0
71.8507 0.440442 0
71.9779 0.105647 0
71.8558 0.433623 0
72.0434 0.65726 0
72.2088 0.162431 0
71.867 0.317071 0
72.0682 0.582702 0
72.1687 0.729926 0
72.1856 0.0973673 0
72.2302 0.681007 0
72.5551 0.955043 0
72.5252 0.766042 0
72.5231 0.210428 0
72.7876 0.780071 0
72.384 0.267193 0
72.2937 0.650576 0
72.7364 0.903091 0
73.0883 0.964523 0
73.1041 0.94576 0
72.4661 0.00847032 0
73.4362 0.979728 0
73.4745 0.887025 0
73.4709 0.600436 0
73.2877 0.250946 0
73.466 0.190851 0
73.5696 0.744067 0
72.9471 0.231912 0
73.8954 0.587661 0
73.8142 0.585404 0
73.7333 0.391152 0
73.354 0.0986389 0
73.9812 0.267172 0
74.1356 0.185714 0
73.5798 0.0337869 0
73.601 0.115445 0
73.9184 0.0808097 0
74.1814 -0.140956 0
73.46 0.115408 0
74.1199 -0.204311 0
74.1257 -0.316934 0
73.5567 -0.036424 0
73.9541 -0.59434 0
73.9303 -0.572353 0
73.7114 -0.47447 0
73.5956 -0.134053 0
73.6826 -0.131858 0
73.9195 -0.576705 0
73.6103 -0.0555264 0
73.6934 -0.802977 0
73.6124 -0.70538 0
73.5859 -0.573474 0
73.5052 -0.0523108 0
73.3234 -0.676736 0
73.3112 -0.668291 0
73.4522 -0.247637 0
73.2462 -0.285006 0
73.3829 -0.160279 0
73.2016 -0.511989 0
73.4342 -0.106326 0
73.0214 -0.436984 0
72.9755 -0.316936 0
73.4043 -0.0671811 0
73.0014 -0.0429058 0
72.7829 0.159212 0
72.9024 0.0373933 0
73.3128 0.0744303 0
72.7718 0.523264 0
72.801 0.630981 0
73.1492 0.024142 0
73.1544 0.640277 0
73.229 0.125909 0
72.9556 1.03593 0
73.3977 0.100861 0
72.9952 1.24982 0
73.088 1.32851 0
73.3466 0.062275 0
73.1496 1.21995 0
73.3968 1.82401 0
73.5565 1.94583 0
73.6485 0.43077 0
73.6714 2.04581 0
73.8128 2.29849 0
73.2725 0.910589 0
74.1285 1.55985 0
73.8497 0.483729 0
74.1386 2.43536 0
73.9687 0.18345 0
74.4028 2.41094 0
74.5931 2.41385 0
73.7858 0.116024 0
74.4435 2.03726 0
75.1062 2.40156 0
75.4389 2.29847 0
74.2331 0.444045 0
75.185 2.19298 0
75.643 2.25894 0
74.6752 1.73562 0
75.5738 1.37602 0
74.4292 0.362598 0
75.3523 2.06056 0
74.5748 0.149239 0
76.0317 2.06795 0
76.1376 1.76918 0
74.4112 0.119276 0
75.821 1.25172 0
76.2792 1.31381 0
76.4726 1.09182 0
74.8237 0.0970538 0
76.5055 0.807222 0
76.5491 0.670803 0
75.0245 0.116729 0
76.5134 0.612837 0
75.883 0.123969 0
75.1365 0.405093 0
74.8955 0.344826 0
76.4972 0.296136 0
76.3809 -0.0591973 0
76.5485 -0.223987 0
74.7376 0.00897469 0
76.1364 -0.427696 0
76.4099 -0.732663 0
74.8074 0.00441788 0
76.0519 -0.427593 0
76.3429 -1.07312 0
75.6376 -0.77791 0
74.8702 -0.216931 0
76.2473 -1.26795 0
76.1581 -1.47869 0
75.6016 -0.338016 0
75.2179 -1.64461 0
73.9903 -1.44092 0
76.0924 -1.52016 0
74.109 -0.192481 0
75.9756 -2.05815 0
75.116 3.91645 0
75.5723 3.32407 0
71.8081 1.10625 0
75.0808 3.93391 0
73.6124 3.84106 0
74.5588 4.44815 0
72.095 0.412184 0
74.0042 4.69161 0
73.3015 4.78506 0
71.3466 0.580637 0
73.3103 5.03347 0
75.9352 -2.30587 0
74.2766 -0.113337 0
75.8213 -2.51143 0
75.1823 -2.8279 0
74.7555 -2.44609 0
73.7549 -0.144352 0
75.3067 -3.17385 0
72.5314 4.78451 0
74.8959 -3.91229 0
73.646 -0.774459 0
74.7474 -3.81175 0
74.1356 -4.41747 0
70.6918 1.46208 0
73.9466 -4.37144 0
74.6225 -2.33187 0
74.3571 -3.92997 0
73.0923 -2.93769 0
72.335 -0.487213 0
73.7691 -4.02867 0
73.3186 -4.31527 0
72.1378 5.06523 0
73.3396 -4.3464 0
72.8759 -0.249408 0
72.7215 -4.59827 0
72.3383 -5.02336 0
71.9355 -0.315894 0
71.6859 -5.1667 0
71.9475 -3.7396 0
70.6099 -0.386077 0
71.1043 -5.2631 0
70.9874 -2.90042 0
71.9555 -2.22712 0
71.4557 -4.50592 0
70.7205 -4.77169 0
72.5322 2.50581 0
70.1128 0.332078 0
71.9955 1.7002 0
70.9822 -0.0316178 0
70.4473 -5.14737 0
71.9726 4.84544 0
69.9824 0.241386 0
71.4276 4.15965 0
69.8979 -5.12515 0
70.7064 -1.01904 0
69.3545 -3.66013 0
71.5242 5.5283 0
69.301 1.3351 0
71.4991 5.4786 0
69.9697 4.81681 0
69.4521 0.264342 0
70.5279 4.98584 0
69.6957 -3.82256 0
70.4293 -0.297741 0
69.3497 -5.24373 0
69.399 -5.06964 0
70.7307 5.32156 0
69.445 5.25051 0
69.0397 0.0233602 0
70.1492 5.34217 0
68.7524 3.41222 0
69.0616 1.52402 0
68.73 -5.20629 0
69.2187 -0.634918 0
68.9699 -5.11089 0
68.6039 5.55191 0
68.3154 -4.78634 0
68.7273 -0.607018 0
68.5106 -1.96365 0
67.59 -4.57645 0
69.3741 -2.40562 0
67.444 -4.39166 0
68.4773 -0.164895 0
66.8422 -4.21787 0
68.2769 1.93 0
68.6258 0.293797 0
68.3121 4.72983 0
68.3043 0.0723804 0
68.1354 5.50071 0
68.0134 5.23325 0
68.1151 0.125598 0
67.4715 4.62394 0
68.0145 0.0877999 0
67.7121 -3.91282 0
68.4786 -0.315315 0
68.658 4.04779 0
67.6513 0.363657 0
67.2711 4.39763 0
66.779 -4.22297 0
68.5623 -0.136222 0
65.6503 -3.52439 0
67.7168 -0.195676 0
66.1503 -3.51141 0
67.8497 1.74847 0
67.7746 0.0352368 0
68.1819 -3.11044 0
67.7774 -0.0414588 0
65.7384 -3.29371 0
66.8111 4.01517 0
66.7491 -2.49708 0
67.7546 -0.0835241 0
65.9572 -2.77841 0
67.4427 2.18498 0
65.9431 1.54079 0
66.4532 3.50865 0
67.4334 -0.555837 0
65.879 -3.09363 0
67.6642 0.157623 0
66.3948 4.63489 0
67.291 -1.35134 0
67.7792 -0.0331269 0
65.6671 -2.79552 0
66.2923 4.23531 0
67.6182 0.368635 0
66.1596 3.38081 0
66.008 3.33711 0
67.6579 0.15094 0
65.4701 3.03067 0
65.0908 -2.43507 0
67.7133 -0.129599 0
64.8415 -2.45386 0
66.5295 -1.04095 0
67.7439 -0.0829851 0
64.5354 -1.57963 0
65.447 3.72692 0
67.5554 0.324163 0
66.3304 2.41568 0
64.9028 -1.36252 0
67.6006 -0.169424 0
64.4278 -1.25473 0
64.6202 2.82304 0
67.6016 0.100584 0
64.8761 2.6916 0
65.1057 2.22379 0
67.7699 -0.00392556 0
64.5522 2.39039 0
65.315 -0.694241 0
67.5259 -0.285862 0
64.7744 -0.586905 0
63.9452 -0.237985 0
66.9469 -0.447174 0
64.1153 -0.14833 0
66.703 0.789202 0
67.6637 0.0176063 0
66.0659 1.86038 0
64.4768 1.96381 0
67.5053 0.0171159 0
64.053 1.40354 0
67.2325 -0.0941964 0
67.7473 -0.0591603 0
64.0074 0.189837 0
64.3459 0.295799 0
67.6825 -0.0490105 0
65.9718 0.440566 0
64.6123 0.691463 0
67.7129 -0.0429991 0
66.8255 -3.42999 0
67.7263 -0.193184 0
67.7532 0.0389786 0
67.599 4.77103 0
67.9545 -4.77324 0
69.7639 -0.558437 0
68.9199 0.648073 0
69.9829 5.6358 0
67.6617 0.103855 0
65.1076 3.5855 0
64.6333 -1.58246 0
67.7223 -0.0966174 0
67.6649 -0.272422 0
67.0871 -2.1022 0
67.6277 0.431305 0
67.7655 0.0544184 0
67.6664 -0.0223115 0
64.4124 1.75285 0
68.2605 0.30422 0
67.7547 1.02905 0
67.9746 -0.769429 0
68.7625 -0.398085 0
71.9574 -0.712056 0
72.012 -5.02838 0
73.5443 4.75687 0
71.8711 0.250443 0
67.3713 1.11837 0
68.5888 5.35205 0
67.6746 -4.33775 0
68.1896 -1.31884 0
66.7759 -0.793254 0
65.1547 0.16894 0
66.3505 4.17347 0
67.5501 1.27082 0
67.4862 -1.00747 0
65.157 -2.80621 0
75.6752 -2.85472 0
73.5562 -0.369087 0
73.2783 0.341926 0
76.2884 1.40547 0
67.6596 -0.438481 0
67.7708 -0.0130015 0
67.7411 0.0437048 0
68.0822 0.489651 0
70.5204 0.436465 0
70.4334 2.59103 0
69.29 -1.14991 0
71.0763 -1.01159 0
69.7932 3.2007 0
71.7922 5.15401 0
70.8171 -5.23871 0
70.0502 -1.11297 0
72.5444 0.836296 0
73.5564 2.76401 0
72.2823 -1.60798 0
72.9066 -0.0110789 0
74.8081 -0.0153375 0
76.5302 -0.378381 0
75.1587 -1.55643 0
73.9322 -0.00281484 0
74.5762 0.0127926 0
76.1567 1.74014 0
74.1327 -0.853177 0
74.1833 -0.105681 0
68.1416 -0.819256 0
67.885 -0.318546 0
67.7517 0.795675 0
68.2096 0.62285 0
67.6872 0.76987 0
67.7439 0.0573588 0
67.7773 -0.0403424 0
67.7099 -0.626361 0
73.9255 0.306689 0
74.7734 0.361561 0
74.3918 -0.548501 0
74.4439 -0.0596313 0
66.0461 -0.440799 0
67.6967 -0.0881029 0
67.283 -0.246863 0
67.6935 -0.169141 0
67.7296 0.0617152 0
67.5333 0.559547 0
74.7096 2.3828 0
74.1003 0.315011 0
74.1373 -0.0106573 0
74.4226 0.0320308 0
69.5601 -0.0188051 0
69.1457 -1.6388 0
69.8418 1.15046 0
69.0436 0.292518 0
67.3146 2.84698 0
66.9603 5.05332 0
66.7634 -3.81676 0
67.615 -1.85422 0
67.9571 -1.19285 0
67.1611 -1.2731 0
67.3667 3.22756 0
67.5959 1.51552 0
74.2099 -0.144216 0
74.1564 -0.0664363 0
74.8217 0.0667195 0
75.6767 0.913397 0
68.4267 -3.21107 0
69.0919 -3.11825 0
68.997 3.07608 0
69.4622 5.64818 0
68.0416 -2.32033 0
68.7693 -1.32896 0
68.695 2.07047 0
68.238 1.02485 0
73.351 1.76534 0
73.5337 0.190037 0
74.1989 -0.0102942 0
74.9451 -0.723102 0
67.1089 0.72027 0
67.7354 0.00281656 0
74.1545 -0.0705892 0
74.2423 -0.358756 0
74.8817 0.783546 0
74.2511 0.117945 0
68.0527 -0.536546 0
67.7907 -0.74897 0
68.1865 1.16747 0
67.7376 0.435411 0
67.7732 -0.0539015 0
67.7712 -0.367547 0
67.7074 0.11697 0
67.7529 0.0344288 0
64.7103 1.48623 0
66.7945 1.15312 0
72.7796 -1.81282 0
74.9394 -3.59171 0
75.9929 2.67973 0
72.7325 1.19787 0
66.6578 -1.25618 0
65.1368 -1.61181 0
73.3182 -0.00201414 0
72.9502 -0.126075 0
73.5414 -0.0396759 0
73.3944 -0.761771 0
74.3842 -1.40177 0
73.8933 -0.164989 0
72.9767 -1.335 0
73.1777 -0.0141823 0
74.2518 -0.0890591 0
74.5289 -0.163573 0
73.7797 0.701585 0
73.721 0.012742 0
67.7182 0.053282 0
67.4553 0.292466 0
66.4134 0.487956 0
64.8647 0.892288 0
67.6101 -0.128762 0
67.7214 -0.0883253 0
67.1747 0.239956 0
67.1197 -0.369874 0
76.1954 -1.29567 0
74.3611 -0.910603 0
74.9763 0.554741 0
75.9492 -1.05635 0
67.7577 -0.0306359 0
67.7699 -0.189245 0
67.7559 0.0097196 0
67.7919 0.149992 0
74.1738 -0.179288 0
74.4031 -0.533887 0
73.3714 0.334696 0
73.3143 0.0235428 0
73.61 0.0122652 0
74.0323 -0.166118 0
72.2353 -0.642986 0
72.5611 -0.154236 0
67.8866 -0.504665 0
68.3146 -1.22608 0
67.9729 1.07695 0
67.7853 0.829731 0
68.177 1.96103 0
67.2159 1.2789 0
67.597 -1.0959 0
67.9063 -1.59865 0
75.3075 0.0245972 0
76.0984 1.29294 0
74.2062 -1.11361 0
74.6473 -0.436406 0
67.4004 -0.634027 0
67.4532 -0.769678 0
67.4919 0.660622 0
67.0921 0.9209 0
74.0573 0.408472 0
73.318 0.235695 0
72.2884 0.0150736 0
72.0464 0.0756593 0
71.9412 2.538 0
73.5384 4.19944 0
72.6988 -4.94759 0
72.2658 -1.92566 0
65.5139 -1.96929 0
67.0679 -2.03534 0
71.415 -1.7892 0
71.7431 -0.645224 0
70.9416 0.291361 0
72.9221 1.61971 0
65.3055 3.42274 0
66.5821 2.01623 0
73.5154 -0.0757065 0
73.8047 -0.8796 0
73.3599 -0.0923978 0
73.3683 -0.02784 0
73.8176 -0.196561 0
73.7196 -0.827816 0
74.0081 0.774802 0
73.3231 0.120007 0
70.5794 0.889758 0
69.4814 0.231624 0
70.0308 -0.202225 0
70.4173 -1.82081 0
74.7378 0.962287 0
74.8053 2.14132 0
74.0831 -0.14522 0
74.3058 -0.39473 0
69.8597 -2.24539 0
70.4688 -1.05655 0
70.1971 1.70805 0
72.0515 3.68096 0
73.0533 0.772626 0
72.7882 0.1337 0
72.2949 0.0593923 0
72.4416 0.700251 0
72.7026 -0.245353 0
72.9993 -0.00765069 0
73.5173 -0.0396064 0
73.9343 -0.14217 0
68.6097 0.325826 0
68.4738 0.856099 0
68.614 -0.647104 0
69.0708 -0.19743 0
69.5896 1.84477 0
68.6029 1.2948 0
68.1416 -1.63574 0
67.6823 -1.64145 0
74.8307 -0.128738 0
74.676 -0.0758864 0
74.1193 0.00602197 0
74.4626 -0.184875 0
68.5731 2.57152 0
68.8869 1.70751 0
68.2711 -0.466835 0
68.2008 -0.172495 0
68.0953 0.172416 0
68.4619 0.580367 0
66.5119 -0.387794 0
67.2559 -0.745693 0
75.9344 -1.88875 0
74.457 -1.07656 0
74.4304 1.71204 0
76.3854 0.698361 0
67.6221 -0.475181 0
67.7724 -0.0525985 0
67.7198 0.0700278 0
67.6415 0.45287 0
67.7661 0.0475926 0
67.7576 0.370806 0
67.8835 -0.191791 0
67.9511 -0.0121052 0
65.7273 0.0910042 0
63.9943 0.454499 0
71.8143 1.89746 0
74.1901 1.31188 0
73.2674 -1.42877 0
73.7096 -2.85294 0
67.2173 1.45591 0
66.9555 0.844651 0
67.7763 -0.0167919 0
67.4783 -0.028546 0
69.1378 4.56295 0
67.6183 2.83125 0
68.6187 -2.52688 0
67.9961 -4.96545 0
67.1507 0.562694 0
67.5871 0.198968 0
73.7245 0.940965 0
73.6151 2.12567 0
74.8166 -0.313727 0
74.2692 -0.0982592 0
72.3071 -0.0135635 0
72.4663 -0.0790837 0
73.529 0.0177368 0
73.7405 0.513827 0
74.9812 -1.25008 0
75.1499 -0.149768 0
75.6718 0.151197 0