# vtk DataFile Version 3.0
Unstructured Grid for Triangles
ASCII
DATASET UNSTRUCTURED_GRID
POINTS 29612 DOUBLE
-0.000272397 1.23686e-05 0
-0.000295789 9.5838e-06 0
-0.000277865 -3.1235e-06 0
0.002024 0.0005 0
0.00203975 0.00049875 0
0.00205 0.0005 0
0.00203975 -0.00049875 0
0.002024 -0.0005 0
0.00205 -0.0005 0
0.0020295 0.0004975 0
0.0020295 -0.0004975 0
0.00201925 0.00049625 0
0.00201925 -0.00049625 0
-0.000529747 -0.000479887 0
-0.00055 -0.0005 0
-0.000524 -0.0005 0
-0.000505983 -0.000484325 0
-0.000498 -0.0005 0
-0.000472 -0.0005 0
-0.000483864 -0.000487761 0
-0.000446 -0.0005 0
-0.000459 -0.000484239 0
-0.000429453 -0.000424878 0
-0.000447486 -0.000420717 0
-0.000441829 -0.000436609 0
-0.000512578 -0.000462101 0
-0.000493078 -0.000453594 0
-0.00050706 -0.000439006 0
-0.000419243 -0.000477545 0
-0.000440307 -0.000471837 0
-0.00043691 -0.000486724 0
-0.000516129 -0.000420948 0
-0.000495355 -0.000415432 0
-0.000511646 -0.00040128 0
-0.000394697 -0.000481197 0
-0.000406302 -0.000455143 0
-0.000537257 -0.000388197 0
-0.000531099 -0.000407297 0
-0.000523982 -0.000388328 0
-0.000370063 -0.000472956 0
-0.000368 -0.0005 0
-0.00035308 -0.000485302 0
-0.0005072 -0.00037867 0
-0.000485506 -0.000383975 0
-0.000490949 -0.000359622 0
-0.000337127 -0.000484331 0
-0.000316 -0.0005 0
-0.000326495 -0.00047415 0
-0.00055 -0.00035 0
-0.000531201 -0.000370361 0
-0.000528367 -0.000346817 0
-0.000363898 -0.000448809 0
-0.000383315 -0.000460336 0
-3.26269e-05 -0.000415503 0
-5.99662e-05 -0.000409556 0
-5.46944e-05 -0.000429488 0
-0.000529747 0.000479887 0
-0.00055 0.0005 0
-0.00055 0.000475 0
-0.00055 0.00045 0
-0.000534834 0.000429171 0
-0.000526943 0.000442611 0
-0.000534026 0.000460176 0
-0.000531099 0.000407297 0
-0.000511672 0.000401178 0
-0.000516129 0.000420948 0
-0.000524 0.0005 0
-0.000505983 0.000484325 0
-0.000531201 0.000370361 0
-0.0005072 0.00037867 0
-0.000523982 0.000388328 0
-0.00048341 0.000469132 0
-0.000483679 0.000487539 0
-0.000528367 0.000346817 0
-0.00055 0.000325 0
-0.000525657 0.000328474 0
-0.000498 0.0005 0
-0.000530382 0.0003125 0
-0.000419243 0.000477545 0
-0.000440015 0.00047335 0
-0.000425917 0.000463678 0
-0.000435138 0.000262661 0
-0.000414982 0.000274462 0
-0.000435654 0.000285217 0
-0.000459 0.000484239 0
-0.000436852 0.000487027 0
-0.000446 0.0005 0
-0.000533308 0.000292503 0
-0.00055 0.000275 0
-0.000523377 0.000276953 0
-0.000425282 0.000446352 0
-0.000409368 0.000435728 0
-0.000406302 0.000455143 0
0.002009 0.000495 0
0.001998 0.0005 0
0.00199875 0.00049375 0
0.0019885 0.0004925 0
0.001972 0.0005 0
0.00197825 0.00049125 0
0.001968 0.00049 0
0.00195775 0.00048875 0
0.001946 0.0005 0
0.0019475 0.0004875 0
0.00193725 0.00048625 0
0.00192 0.0005 0
0.001927 0.000485 0
0.00191675 0.00048375 0
0.0019065 0.0004825 0
0.001894 0.0005 0
0.00189625 0.00048125 0
0.001886 0.00048 0
0.001868 0.0005 0
0.00187575 0.00047875 0
0.0018655 0.0004775 0
0.00185515 0.00048575 0
0.001842 0.0005 0
0.001845 0.000475 0
0.00185525 0.00047625 0
0.00182564 0.0004829 0
0.001816 0.0005 0
0.0018245 0.0004725 0
0.00183475 0.00047375 0
0.00181425 0.00047125 0
0.00180295 0.000482657 0
0.00179 0.0005 0
0.00179375 0.00046875 0
0.001804 0.00047 0
0.00178168 0.000480619 0
0.001764 0.0005 0
0.00177325 0.00046625 0
0.0017835 0.0004675 0
0.00176428 0.000476631 0
0.001763 0.000465 0
0.001738 0.0005 0
0.001751 0.000484164 0
0.00175275 0.00046375 0
0.00174025 0.000475632 0
0.001712 0.0005 0
0.00172615 0.000478449 0
0.001722 0.00046 0
0.00173225 0.00046125 0
0.0017015 0.0004575 0
0.00171243 0.00047381 0
0.00169554 0.000479999 0
0.001686 0.0005 0
0.00167507 0.000479751 0
0.00168498 0.000464861 0
0.00166 0.0005 0
0.0016558 0.000471459 0
0.00167135 0.000462887 0
0.001681 0.000455 0
0.0016605 0.0004525 0
0.00167075 0.00045375 0
0.00164059 0.000461599 0
0.0016394 0.000479551 0
0.00162881 0.00046615 0
0.00162975 0.00044875 0
0.00165025 0.00045125 0
0.00164 0.00045 0
0.00161754 0.000458641 0
0.00161722 0.000478101 0
0.00159956 0.000458294 0
0.00160925 0.00044625 0
0.0016195 0.0004475 0
0.00157667 0.000460322 0
0.00158875 0.00044375 0
0.00159194 0.000480155 0
0.001599 0.000445 0
0.0015785 0.0004425 0
0.00155808 0.000456757 0
0.00155647 0.000476701 0
0.00154059 0.000466642 0
0.00153756 0.000450083 0
0.00154839 0.000450446 0
0.00156825 0.00044125 0
0.00151954 0.000480508 0
0.00154052 0.00048477 0
0.00153 0.0005 0
0.00154775 0.00043875 0
0.00152142 0.000456625 0
0.00152821 0.000445753 0
0.0015375 0.0004375 0
0.001504 0.0005 0
0.00149644 0.000485168 0
0.00151787 0.000443178 0
0.00152725 0.00043625 0
0.00150675 0.00043375 0
0.001517 0.000435 0
0.00148119 0.000450887 0
0.00148072 0.000475756 0
0.00146584 0.000463516 0
0.00150008 0.00046396 0
0.00149351 0.00044543 0
0.0015061 0.000446252 0
0.001476 0.00043 0
0.00148625 0.00043125 0
0.00146492 0.000482975 0
0.00144888 0.000473562 0
0.00146676 0.000444259 0
0.00145255 0.000453656 0
0.00145652 0.000438669 0
0.00141401 0.000479821 0
0.001426 0.0005 0
0.0014 0.0005 0
0.00144374 0.000438862 0
0.0014555 0.0004275 0
0.001435 0.000425 0
0.00144525 0.00042625 0
0.00142746 0.000438121 0
0.00141288 0.000443191 0
0.00141707 0.000432778 0
0.0013921 0.000438992 0
0.00140355 0.00045932 0
0.00138302 0.00045922 0
0.00142912 0.000458869 0
0.00140592 0.000430037 0
0.0014145 0.0004225 0
0.00136458 0.00045869 0
0.00137106 0.00044063 0
0.001394 0.00042 0
0.00138259 0.000428915 0
0.00137484 0.000477094 0
0.00139166 0.000478902 0
0.0013586 0.000478984 0
0.00133449 0.000478649 0
0.00134717 0.000461848 0
0.00137256 0.000425134 0
0.00135323 0.000424541 0
0.00136325 0.00041625 0
0.00136122 0.00042876 0
0.00131206 0.000447284 0
0.00133168 0.000456738 0
0.00131773 0.000465243 0
0.00134756 0.000440343 0
0.00132747 0.000436463 0
0.00133483 0.000426786 0
0.00131081 0.00041867 0
0.00132382 0.000422815 0
0.00131507 0.00043122 0
0.00131059 0.000480123 0
0.0013325 0.0004125 0
0.0012915 0.0004075 0
0.0012982 0.000418199 0
0.00128915 0.000426216 0
0.00126366 0.000447574 0
0.00127331 0.000430908 0
0.00128781 0.000444872 0
0.00125336 0.000428376 0
0.00130218 0.000431077 0
0.00127894 0.000416344 0
0.00124774 0.000469608 0
0.00127668 0.000464148 0
0.00126591 0.00048331 0
0.00126722 0.000418415 0
0.00125768 0.000411931 0
0.00124326 0.000413546 0
0.0012505 0.0004025 0
0.00122408 0.000450118 0
0.00120276 0.000447432 0
0.0012139 0.000432235 0
0.00124336 0.000444132 0
0.00123056 0.000427595 0
0.00122977 0.000409049 0
0.0012185 0.000469217 0
0.00122676 0.000485947 0
0.00120525 0.000486094 0
0.00121479 0.000413153 0
0.00119547 0.000424221 0
0.00120249 0.000407448 0
0.00119925 0.00039625 0
0.00119346 0.000406114 0
0.00117479 0.000447279 0
0.00114726 0.000445259 0
0.0011571 0.000427814 0
0.00119443 0.000466611 0
0.00117447 0.000421596 0
0.00118421 0.00040752 0
0.00117409 0.000404437 0
0.00116775 0.000470073 0
0.001179 0.0004855 0
0.00115473 0.000484802 0
0.0011685 0.0003925 0
0.00117875 0.00039375 0
0.00115454 0.000400551 0
0.001148 0.00039 0
0.00115825 0.00039125 0
0.00111703 0.000423398 0
0.00113786 0.000426731 0
0.00112589 0.000443871 0
0.00113234 0.000406671 0
0.00114754 0.000413371 0
0.001106 0.000442326 0
0.00109703 0.000424261 0
0.0011275 0.0003875 0
0.00113775 0.00038875 0
0.00110211 0.000480875 0
0.00108244 0.000471951 0
0.00109312 0.000458413 0
0.00111755 0.000399116 0
0.0010944 0.000392972 0
0.00110415 0.000405876 0
0.00108839 0.000407536 0
0.00106472 0.000476905 0
0.00107274 0.000457868 0
0.00108011 0.000392415 0
0.00106885 0.000404365 0
0.00106625 0.000388708 0
0.00105286 0.000419254 0
0.00105055 0.000395469 0
0.00104215 0.000439764 0
0.00106346 0.000440629 0
0.00100945 0.000451249 0
0.00102825 0.00045614 0
0.00101189 0.000468452 0
0.00107625 0.00038125 0
0.00105575 0.00037875 0
0.001066 0.00038 0
0.00103352 0.000476905 0
0.00101803 0.00048465 0
0.00103685 0.000389398 0
0.0010245 0.00038825 0
0.00103525 0.00037625 0
0.00101092 0.000399779 0
0.00101267 0.000382619 0
0.00101382 0.00042025 0
0.00103187 0.000405286 0
0.00103359 0.000424605 0
0.000987383 0.00045447 0
0.000999411 0.000435161 0
0.0009744 0.000433145 0
0.0010045 0.0003725 0
0.00101475 0.00037375 0
0.000970845 0.000465215 0
0.000952614 0.000467664 0
0.000961768 0.000449944 0
0.00099729 0.000387704 0
0.000978901 0.00039598 0
0.000985823 0.000381492 0
0.000962289 0.000393709 0
0.000974259 0.000381279 0
0.00097375 0.00036875 0
0.000963045 0.000376631 0
0.000958 0.0005 0
0.000932 0.0005 0
0.000947542 0.00048457 0
0.000949675 0.000385245 0
0.000936214 0.000389472 0
0.000940006 0.000374906 0
0.000966411 0.000412573 0
0.000944241 0.000407079 0
0.000903569 0.000424993 0
0.000921701 0.000402409 0
0.000927439 0.000427744 0
0.000889795 0.000409067 0
0.000903071 0.00040248 0
0.000925447 0.000377721 0
0.00093275 0.00036375 0
0.000907708 0.000387127 0
0.000911303 0.000370839 0
0.000911933 0.000455145 0
0.000930678 0.000473279 0
0.000911886 0.000482603 0
0.000887724 0.000388076 0
0.000899595 0.000375116 0
0.000902 0.00036 0
0.000889241 0.00036954 0
0.000836977 0.000459472 0
0.000836223 0.000483578 0
0.000820467 0.000474142 0
0.000871227 0.000403557 0
0.000861 0.000355 0
0.000868368 0.000365714 0
0.00085484 0.00036588 0
0.000847735 0.000402845 0
0.000823121 0.000421599 0
0.000826582 0.000398147 0
0.000846943 0.00042454 0
0.000838832 0.000378613 0
0.000835569 0.000363808 0
0.000844098 0.00036291 0
0.00085075 0.00035375 0
0.000851465 0.000477164 0
0.00083025 0.00035125 0
0.000822824 0.000368659 0
0.00081446 0.000357362 0
0.000805884 0.000371794 0
0.000753471 0.000477524 0
0.000738313 0.000473927 0
0.000739102 0.000461526 0
0.00079826 0.000358588 0
0.000788607 0.000376287 0
0.000781733 0.000357987 0
0.000816783 0.000384471 0
0.000807975 0.000404095 0
0.000752138 0.000404775 0
0.000767682 0.000417043 0
0.000749617 0.000421803 0
0.000752903 0.000384008 0
0.000738293 0.000393136 0
0.000772614 0.000394048 0
0.00076863 0.000371878 0
0.000765995 0.000354121 0
0.000779 0.000345 0
0.00071811 0.000453059 0
0.000738069 0.000437967 0
0.000752085 0.000365972 0
0.000728123 0.000374583 0
0.000741845 0.000354664 0
[...]
CELL_DATA 58684
VECTORS velocity DOUBLE
65.8862 0.0427261 0
72.3077 -0.000114752 0
73.0556 -0.000277878 0
72.336 -0.00158058 0
72.9851 -0.00862864 0
72.3533 -0.0095108 0
72.9248 -0.030545 0
67.8334 0.00401728 0
67.8591 -0.0176326 0
68.0043 0.00305451 0
68.1387 0.00271285 0
68.2142 -0.32546 0
67.9127 -0.0775556 0
68.2996 -0.0996759 0
67.8922 -0.122364 0
68.5135 -0.125428 0
67.8402 -0.0628922 0
68.8525 -0.111768 0
67.9651 -0.233279 0
69.2984 -0.0646814 0
67.8465 -0.0657794 0
68.8248 -0.273374 0
73.4502 -1.13962 0
67.8016 0.00513118 0
67.8183 0.018937 0
67.8004 0.00976185 0
67.878 0.066166 0
67.8586 0.0125569 0
67.8617 0.0826144 0
67.9873 0.0272752 0
67.85 0.0634027 0
67.9372 0.023511 0
67.82 0.05281 0
68.3319 0.092685 0
68.131 0.683652 0
68.1856 0.048869 0
67.8578 0.0838857 0
68.4059 0.213635 0
72.3618 -0.00763597 0
72.3823 -0.000136687 0
72.4235 -0.0185413 0
72.4278 -0.0170694 0
72.4493 -0.000212857 0
72.4978 -0.0214306 0
72.5046 -0.0303991 0
72.5118 -0.0211103 0
72.5384 -0.000543466 0
72.5798 -0.0380874 0
72.5826 -0.0315798 0
72.6058 -0.000732446 0
72.6597 -0.0411563 0
72.6622 -0.042501 0
72.6698 -0.0244551 0
72.6912 -0.0010942 0
72.7241 -0.0408908 0
72.7251 -0.0277182 0
72.7414 -0.000813561 0
72.7823 -0.0411858 0
72.7816 -0.031501 0
72.787 -0.0139422 0
72.8016 0.00124063 0
72.8099 -0.0135545 0
72.8173 0.00313481 0
72.8196 0.00266143 0
72.8297 0.00976534 0
72.8336 0.0225705 0
72.8301 0.0220707 0
72.8077 0.00428256 0
72.8115 0.057649 0
72.7982 0.0435809 0
72.7752 0.00717513 0
72.7623 0.0902223 0
72.749 0.0747384 0
72.7054 0.131247 0
72.6929 0.00675159 0
72.6715 0.120214 0
72.6388 0.079546 0
72.591 0.0139226 0
72.566 0.190984 0
72.4526 0.153528 0
72.5534 0.160787 0
72.4405 0.0127775 0
72.3896 0.112264 0
72.437 0.212699 0
72.2433 0.130295 0
72.2992 0.174477 0
72.2917 0.236848 0
72.2179 0.282531 0
72.1094 0.168838 0
72.027 0.219796 0
72.1659 0.212412 0
72.0691 0.272921 0
71.994 0.18252 0
71.9949 0.197054 0
71.9635 0.253595 0
71.8555 0.1867 0
71.9343 0.1646 0
71.8814 0.220601 0
71.8414 0.209642 0
71.8398 0.128627 0
71.8206 0.0710537 0
71.8281 0.14216 0
71.8241 0.0143091 0
71.8001 0.0814405 0
71.7945 0.0453484 0
71.7966 0.05468 0
71.8418 -0.00712195 0
71.8007 0.0222289 0
71.8095 -0.0204939 0
71.8891 -0.0722832 0
71.8791 -0.0507073 0
71.8412 -0.0534554 0
71.888 -0.134578 0
71.9364 -0.0790327 0
71.9995 -0.159644 0
71.9792 -0.10701 0
72.1401 -0.00421058 0
71.9818 -0.202853 0
72.0454 -0.267729 0
72.2037 -0.247473 0
72.3002 -0.193408 0
72.1604 -0.153666 0
72.2206 -0.298818 0
72.4106 -0.182201 0
72.3688 -0.333402 0
72.3313 -0.100493 0
72.4343 -0.279264 0
72.5165 -0.0820355 0
72.4966 -0.333657 0
72.5876 -0.360206 0
72.6859 -0.139782 0
72.6986 -0.233779 0
72.5975 -0.0948722 0
72.8183 -0.24646 0
72.6262 -0.0761245 0
72.7604 -0.291608 0
72.9411 -0.154774 0
72.8614 -0.0478705 0
72.8476 0.00231955 0
72.8464 -0.132234 0
72.963 -0.0897466 0
72.7282 -0.00211754 0
72.9955 0.00905059 0
73.0217 0.0777798 0
72.817 0.179917 0
72.79 0.0988397 0
72.9946 0.098844 0
72.9509 0.161133 0
72.7215 0.0500274 0
72.8812 0.32428 0
72.9021 0.422256 0
72.5832 0.297576 0
72.6223 0.225079 0
72.8288 0.405699 0
72.7756 0.485141 0
72.5751 0.080101 0
72.7696 0.594597 0
72.6058 0.683623 0
72.3739 0.455879 0
72.5147 0.5476 0
72.2589 0.450517 0
72.4808 0.73008 0
72.1906 0.150922 0
72.4572 0.676758 0
72.2082 0.599998 0
72.0823 0.14799 0
72.0439 0.620744 0
71.958 0.473893 0
71.9647 0.24439 0
71.9161 0.0932332 0
72.0322 0.639238 0
71.9389 0.6413 0
71.9148 0.051921 0
71.8341 0.378752 0
71.7688 0.27766 0
71.8521 0.211384 0
71.8818 0.0467948 0
71.9081 0.00347254 0
71.7326 0.256961 0
71.9272 -0.0667833 0
71.7128 0.0312191 0
71.7331 -0.145991 0
71.752 -0.175175 0
71.9914 -0.00226498 0
71.856 -0.399529 0
71.7837 -0.231879 0
72.0257 -0.37969 0
72.1508 -0.527666 0
71.8561 -0.541545 0
71.9856 -0.633013 0
72.1196 -0.119544 0
72.0586 -0.727279 0
72.1205 -0.891075 0
72.1755 -0.858201 0
72.6489 -0.188903 0
72.2572 -0.678347 0
72.544 -1.10408 0
72.7915 -0.789573 0
72.6116 -0.652667 0
72.7016 -1.19371 0
72.6676 -1.18797 0
72.6409 -0.168693 0
72.9372 -1.30432 0
73.0453 -1.17269 0
73.2688 -0.142862 0
73.2571 -1.19187 0
72.9499 -0.837724 0
73.3969 -0.567898 0
73.5186 -0.669154 0
73.3676 -0.980127 0
73.4844 -1.19753 0
73.3338 -0.270631 0
73.8053 -0.878129 0
73.7473 -1.16136 0
74.0599 -0.825352 0
73.4285 -0.00614851 0
73.7569 -0.595849 0
74.0485 -0.730151 0
73.4222 -0.156506 0
74.1173 -0.666791 0
73.8324 -0.259334 0
74.1435 -0.677576 0
73.6733 -0.0625984 0
74.1516 -0.259676 0
74.1851 -0.301608 0
73.5412 -0.0427154 0
74.2299 -0.181422 0
74.0627 0.056185 0
73.9022 -0.0828142 0
73.7696 -0.045709 0
74.0894 0.20415 0
73.6986 -0.0286562 0
73.6507 -0.0163033 0
74.0039 0.0507529 0
73.9848 0.242794 0
73.8637 0.341486 0
73.6865 -0.0632799 0
73.7301 0.179137 0
73.5642 0.216809 0
73.7064 -0.0403981 0
73.4841 0.0546695 0
73.4997 0.243728 0
73.7126 0.0255984 0
73.7563 -0.154066 0
73.7607 -0.223121 0
73.4037 0.0347264 0
73.9828 -0.00223334 0
73.3421 -0.0174559 0
73.2867 -0.250328 0
73.3069 -0.171314 0
74.1493 -0.352242 0
73.6458 -0.540734 0
73.4959 -0.841898 0
74.3581 -0.00350873 0
73.4994 -1.008 0
73.9595 -1.35655 0
73.9491 -0.706323 0
74.2811 -0.471706 0
73.7126 -1.36973 0
74.3503 -0.604377 0
74.8686 -0.104195 0
74.0876 -1.28437 0
74.0298 -1.78031 0
74.3225 -1.86519 0
74.9626 -0.400978 0
74.9492 -1.74106 0
74.4895 -2.00086 0
75.2291 -0.217926 0
74.8224 -2.35424 0
75.2849 -2.45377 0
75.5188 -1.37478 0
75.5547 -0.000800456 0
75.7947 -2.44797 0
75.9232 -0.763503 0
76.2471 -0.81124 0
75.9091 -2.16424 0
75.8336 -1.62847 0
76.7078 -2.12625 0
75.9025 -0.225714 0
76.5504 -2.37709 0
76.7828 -1.39429 0
77.3352 -1.74797 0
75.6786 -0.0591185 0
77.7724 -0.857273 0
77.6635 -0.543021 0
75.6006 0.0567009 0
77.984 -1.46221 0
78.2865 -0.706733 0
76.5001 0.284812 0
75.9797 0.0446468 0
77.1345 -0.383264 0
78.3652 -0.103703 0
75.7344 0.119434 0
78.1672 0.727178 0
78.4113 -0.089797 0
78.4213 0.165021 0
75.4997 0.678472 0
77.3236 1.03634 0
78.311 1.07499 0
75.4223 0.111984 0
78.1364 1.52142 0
78.0572 1.57771 0
77.4099 2.84598 0
74.1727 0.202792 0
78.1641 2.51266 0
76.702 1.73932 0
75.2219 0.802897 0
75.1626 1.69409 0
78.016 2.86025 0
77.3908 3.38367 0
74.5251 0.346938 0
77.2627 3.89896 0
72.8869 -0.00681069 0
72.8509 -0.000685462 0
72.7634 -0.044771 0
72.7545 -0.0356427 0
72.6946 -0.00178142 0
72.5874 -0.0532234 0
72.5786 -0.0642731 0
72.5582 -0.0415216 0
72.4975 -0.00340831 0
72.4213 -0.0789861 0
72.4184 -0.055462 0
72.3713 -0.00536643 0
72.2772 -0.083063 0
72.2773 -0.0829919 0
72.2658 -0.052031 0
72.2213 -0.00688838 0
72.1642 -0.0899124 0
72.1648 -0.065458 0
72.129 -0.00972268 0
72.0554 -0.0939643 0
72.0592 -0.0804089 0
72.0044 -0.0884022 0
72.054 -0.0423175 0
71.9839 -0.0444264 0
71.9348 -0.0579366 0
71.9862 -0.0330579 0
71.9409 -0.0290155 0
71.9357 -0.0210062 0
71.9449 -0.0144015 0
71.9585 -0.0161759 0
71.9519 0.000996031 0
71.9765 0.0216547 0
71.963 0.00230196 0
72.0259 0.0600326 0
72.0307 0.0679835 0
72.0529 0.0483315 0
72.0042 0.0239287 0
72.0633 0.0658967 0
72.133 0.0675163 0
72.0867 0.0451324 0
72.2205 0.154811 0
72.2108 0.0643183 0
72.2694 0.0971785 0
72.1982 0.0813686 0
72.2931 0.142357 0
72.4266 0.158363 0
72.4729 0.0922098 0
72.3996 0.154093 0
72.5348 0.174942 0
72.5471 0.189233 0
72.6632 0.0788245 0
72.6225 0.107866 0
72.7001 0.143952 0
72.7801 0.197042 0
72.7829 0.0761436 0
72.8266 0.123326 0
72.8594 0.156318 0
72.8716 0.0332898 0
72.8077 0.0971126 0
72.911 0.109001 0
72.9153 0.0734008 0
72.9136 -0.00306076 0
72.9253 -0.00652122 0
72.9243 -0.0350327 0
72.8234 0.03801 0
72.9652 -0.068607 0
72.9412 -0.174286 0
72.9324 -0.108569 0
72.92 -0.0508208 0
72.9157 -0.232073 0
72.9006 -0.208489 0
72.7395 -0.171713 0
72.8917 -0.194354 0
72.8421 -0.310468 0
72.7892 -0.3763 0
72.7977 -0.0654634 0
72.7538 -0.283425 0
72.6493 -0.48317 0
72.6818 -0.223457 0
72.596 -0.421184 0
72.4524 -0.539191 0
72.5036 -0.395341 0
72.293 -0.151096 0
72.3727 -0.477022 0
72.2902 -0.536605 0
72.1905 -0.129279 0
72.1918 -0.570158 0
72.2978 -0.418708 0
72.034 -0.425557 0
72.1977 -0.308495 0
72.021 -0.558375 0
71.8067 -0.505532 0
71.8647 -0.122695 0
71.9261 -0.381372 0
71.7227 -0.469975 0
71.7887 -0.296595 0
71.9129 -0.165121 0
71.6729 -0.349381 0
71.6417 -0.25554 0
71.7445 -0.0455609 0
71.6963 -0.053619 0
71.6119 -0.0964104 0
71.591 -0.136582 0
71.7313 -0.130983 0
71.5873 -0.0244435 0
71.6077 0.0704967 0
71.8101 0.0592343 0
71.684 0.035702 0
71.6913 0.245373 0
71.7274 0.243241 0
71.7493 0.0230484 0
71.7562 0.331018 0
71.8168 0.431118 0
71.995 0.168636 0
71.8341 0.318745 0
72.0344 0.607118 0
72.0509 0.468665 0
71.8811 0.0973744 0
72.1013 0.595138 0
72.3469 0.789214 0
72.179 0.188008 0
72.3293 0.599456 0
72.399 0.244551 0
72.504 0.612058 0
72.338 0.326952 0
72.5826 0.82404 0
72.7847 0.725366 0
72.5635 0.174435 0
72.7459 0.711578 0
73.006 0.709431 0
72.8204 0.111109 0
72.6821 0.59019 0
72.9752 0.516029 0
73.1394 0.572072 0
72.7848 0.0908237 0
73.1696 0.427714 0
73.3731 0.387484 0
73.3056 0.222513 0
72.9883 0.0555863 0
73.3659 0.075956 0
72.931 0.115413 0
73.1649 0.404713 0
73.3992 0.193641 0
73.485 -0.0187356 0
73.4706 -0.126265 0
72.9518 0.0015127 0
73.4641 -0.343306 0
73.4686 -0.381531 0
73.275 -0.428799 0
73.0466 -0.179781 0
72.9512 -0.215441 0
73.3536 -0.478662 0
73.0505 -0.0338873 0
73.2467 -0.661724 0
73.1975 -0.640833 0
73.0494 -0.581275 0
72.8521 -0.134539 0
73.038 -0.667098 0
72.7844 -0.887755 0
72.7471 -0.229103 0
72.8289 -0.26421 0
72.7793 -0.622323 0
72.535 -0.773077 0
72.8678 -0.146549 0
72.4758 -0.817433 0
72.3994 -0.651234 0
72.5563 -0.0690432 0
72.2223 -0.472312 0
72.1575 -0.396679 0
72.2007 -0.0424368 0
72.4539 -0.0380463 0
72.4335 -0.111173 0
72.224 -0.248912 0
72.5088 -0.106899 0
72.0676 -0.101578 0
72.0211 0.0748633 0
72.2065 0.312548 0
72.4412 0.026691 0
72.0648 0.526113 0
72.0776 0.652573 0
72.3039 0.285109 0
72.4893 0.665063 0
72.4362 0.286569 0
72.1505 0.765007 0
72.4578 0.107338 0
72.3478 1.18074 0
72.3501 1.21509 0
72.53 0.142307 0
72.5876 1.25457 0
72.8428 1.59943 0
72.7077 1.52308 0
73.0717 0.311225 0
73.3734 1.82982 0
73.4715 2.01789 0
72.6818 0.925628 0
73.3874 1.44216 0
72.9751 0.576068 0
73.9435 2.20801 0
73.3903 0.199405 0
74.0548 2.11277 0
74.0539 1.98916 0
73.1205 0.156744 0
73.8678 1.76267 0
74.756 2.02523 0
74.9607 1.97169 0
74.0564 0.475029 0
75.0879 1.83836 0
75.1679 1.94197 0
73.842 1.25042 0
75.1622 1.15069 0
74.3509 0.443035 0
75.4286 1.75187 0
74.442 0.159955 0
75.6527 1.4983 0
75.7645 1.38443 0
74.1369 0.120884 0
75.4607 1.16339 0
75.9926 0.964223 0
76.1013 0.832582 0
74.8668 0.270973 0
75.9726 0.812612 0
76.1409 0.603233 0
75.6171 0.972086 0
76.0019 0.415492 0
75.0595 0.184219 0
75.9864 0.659073 0
75.2036 0.0698886 0
76.1944 0.415118 0
76.2298 0.326525 0
74.9921 0.0707713 0
76.1429 0.242662 0
76.2453 0.174824 0
76.2771 0.12037 0
75.5722 0.0152648 0
76.3058 0.0747945 0
76.3359 0.0588926 0
75.7506 -0.0249897 0
76.3555 0.0677119 0
76.311 -0.0709129 0
75.7332 0.0785737 0
75.5417 0.110982 0
76.4506 0.073259 0
76.4944 -0.0604749 0
76.6718 0.00892979 0
75.4843 -0.004753 0
76.6225 -0.218675 0
76.8805 -0.135481 0
75.6391 -0.0273054 0
76.514 -0.2346 0
77.0562 -0.322958 0
76.5206 -0.491188 0
75.7784 -0.197573 0
77.1001 -0.491979 0
77.2258 -0.670752 0
76.2739 -0.263021 0
76.503 -1.08098 0
75.4923 -1.15675 0
77.0763 -0.859256 0
75.3493 -0.156312 0
77.3795 -1.22443 0
76.7241 4.3716 0
77.1838 3.83117 0
73.4365 1.1743 0
76.6809 4.3467 0
75.1967 4.13994 0
76.1177 4.84015 0
73.8162 0.446618 0
75.5341 5.02404 0
74.8064 5.04343 0
72.9369 0.609231 0
74.7914 5.33211 0
77.408 -1.53071 0
75.4452 -0.0900394 0
77.4023 -1.74898 0
76.8189 -2.17508 0
76.3475 -1.86718 0
75.1327 -0.119127 0
77.0704 -2.48528 0
74.0119 4.98402 0
76.8399 -3.30106 0
75.1343 -0.640979 0
76.705 -3.252 0
76.1401 -3.90672 0
72.1463 1.50322 0
75.9727 -3.94328 0
76.2704 -1.86441 0
76.349 -3.46685 0
74.9674 -2.65225 0
74.0065 -0.429381 0
75.7386 -3.63939 0
75.3219 -4.01696 0
73.5837 5.25086 0
75.344 -3.99996 0
74.4752 -0.214246 0
74.7175 -4.36183 0
74.3799 -4.80118 0
73.6355 -0.281546 0
73.7208 -5.04489 0
73.8649 -3.56445 0
72.2934 -0.368445 0
73.1435 -5.19367 0
72.781 -2.8518 0
73.7465 -2.04629 0
73.4021 -4.39762 0
72.6483 -4.75883 0
74.137 2.68603 0
71.4732 0.330405 0
73.6334 1.81612 0
72.6752 -0.0267223 0
72.4297 -5.17862 0
73.3956 4.98537 0
71.31 0.241079 0
72.8546 4.2645 0
71.8435 -5.21301 0
72.398 -0.991659 0
71.1184 -3.82534 0
72.9006 5.67667 0
70.4804 1.30273 0
72.873 5.60473 0
71.2853 4.81885 0
70.6655 0.262336 0
71.8564 5.01943 0
71.4998 -3.88126 0
72.0731 -0.297314 0
71.2448 -5.37013 0
71.2779 -5.22217 0
72.0821 5.38306 0
70.7288 5.22575 0
70.1453 0.0155722 0
71.4746 5.36571 0
69.9324 3.29674 0
70.1949 1.47702 0
70.5843 -5.39017 0
70.642 -0.694483 0
70.8255 -5.29434 0
69.8451 5.48004 0
70.1031 -5.01324 0
69.9791 -0.683868 0
69.886 -2.20067 0
69.3024 -4.90511 0
70.9905 -2.54749 0
69.1387 -4.71502 0
69.5782 -0.186089 0
68.4848 -4.59689 0
69.2882 1.8064 0
69.6405 0.277055 0
69.51 4.61878 0
69.1699 0.0579045 0
69.3596 5.40814 0
69.222 5.10042 0
68.9111 0.112837 0
68.6395 4.44258 0
68.7163 0.0795548 0
69.3192 -4.225 0
69.5925 -0.363423 0
69.8596 3.94832 0
67.9977 0.426818 0
68.4221 4.17225 0
68.3926 -4.61808 0
69.688 -0.16296 0
67.1834 -3.97393 0
67.9414 -0.325459 0
67.6514 -3.9374 0
68.7561 1.56845 0
67.8012 0.0391507 0
69.7302 -3.43084 0
67.8017 -0.0622337 0
67.2063 -3.75497 0
67.9348 3.74987 0
68.0917 -2.95441 0
67.8518 -0.157009 0
67.3442 -3.24561 0
68.387 1.93165 0
66.9077 1.13523 0
67.5475 3.20608 0
67.9352 -0.852753 0
67.3218 -3.56968 0
67.848 0.190457 0
67.5487 4.37997 0
68.2584 -1.72118 0
67.7989 -0.0488664 0
67.0425 -3.27339 0
67.4301 3.94923 0
67.9387 0.398742 0
67.2363 3.04382 0
67.108 2.99357 0
67.86 0.16591 0
66.5689 2.64661 0
66.4864 -2.95126 0
67.85 -0.218058 0
66.2301 -2.9651 0
67.5342 -1.52524 0
67.8388 -0.138402 0
65.8396 -2.10946 0
66.5744 3.374 0
67.9114 0.321735 0
67.3186 2.03968 0
66.1599 -1.89252 0
67.8485 -0.288307 0
65.6987 -1.78433 0
65.755 2.41153 0
67.8656 0.0864933 0
65.9906 2.27896 0
66.1896 1.80422 0
67.8037 -0.00727488 0
65.6789 1.9545 0
66.4333 -1.20934 0
67.9052 -0.505088 0
65.9411 -1.10349 0
65.1808 -0.760729 0
67.6829 -0.838655 0
65.33 -0.670671 0
67.4644 0.446301 0
67.8455 -0.0267659 0
67.0574 1.45951 0
65.6162 1.50749 0
67.8405 -0.0821305 0
65.2082 0.9203 0
67.7568 -0.351868 0
67.8095 -0.0765588 0
65.2038 -0.32637 0
65.5029 -0.216512 0
67.8422 -0.099732 0
66.9097 -0.0147652 0
65.7454 0.193508 0
67.825 -0.0726962 0
68.303 -3.83895 0
67.9567 -0.327649 0
67.813 0.0393411 0
68.7736 4.58126 0
69.7337 -5.03407 0
71.318 -0.580986 0
70.0203 0.623703 0
71.2834 5.64735 0
67.8363 0.101513 0
66.2405 3.22244 0
65.9177 -2.1028 0
67.7825 -0.133603 0
67.9277 -0.43343 0
68.3495 -2.52263 0
68.0176 0.476221 0
67.863 0.0888705 0
67.8558 -0.0794061 0
65.5438 1.28047 0
69.1376 0.283311 0
68.4775 0.92713 0
68.8296 -0.948845 0
70.0219 -0.448037 0
73.6597 -0.638103 0
74.0473 -4.87204 0
75.0447 5.04317 0
73.5597 0.268218 0
68.052 0.950018 0
69.8224 5.26431 0
69.3541 -4.6648 0
69.3427 -1.55087 0
67.5961 -1.19206 0
66.2497 -0.345757 0
67.4883 3.87351 0
68.2705 1.11769 0
68.2581 -1.32098 0
66.5535 -3.29489 0
77.3137 -2.11668 0
75.0064 -0.300122 0
75.1657 0.396863 0
78.1547 2.10939 0
68.0339 -0.654134 0
67.8394 -0.0287539 0
67.8459 0.0643786 0
68.8639 0.455569 0
71.9669 0.436223 0
71.8078 2.63102 0
70.7639 -1.22117 0
72.788 -0.95619 0
71.0768 3.19216 0
73.2085 5.31861 0
72.8224 -5.21018 0
71.6793 -1.1211 0
74.3265 0.928967 0
75.256 3.04869 0
74.0143 -1.43309 0
74.4837 -0.0110114 0
75.6704 -0.0590788 0
76.7377 -0.0508425 0
77.4868 -1.85338 0
75.7517 0.0065884 0
75.204 -0.00122199 0
76.2214 0.270002 0
75.3986 -2.2723 0
75.2487 -0.222453 0
69.0892 -1.00449 0
68.5058 -0.421366 0
68.4184 0.733864 0
69.0595 0.581227 0
68.2865 0.734488 0
67.8495 0.103839 0
67.8009 -0.0559463 0
68.2677 -0.881511 0
75.8451 0.37166 0
76.7744 0.531855 0
75.6144 -0.42109 0
75.5035 -0.0519347 0
66.9893 -0.898912 0
67.8742 -0.167373 0
67.7596 -0.483008 0
67.893 -0.302226 0
67.832 0.0656259 0
68.0011 0.560289 0
75.8199 1.19372 0
74.6672 0.247679 0
74.5494 -0.00438591 0
73.4361 -0.821445 0
71.0565 -0.016275 0
70.6166 -1.7821 0
71.1575 1.15929 0
70.1731 0.282576 0
68.3275 2.58565 0
68.1333 4.8569 0
68.3136 -4.22778 0
68.7625 -2.2417 0
68.9447 -1.46045 0
68.0846 -1.64134 0
68.4265 2.99812 0
68.4153 1.32254 0
75.396 -0.330438 0
75.6128 -0.151216 0
75.5388 0.00443437 0
76.0705 0.185897 0
70.0617 -3.46672 0
70.7689 -3.27806 0
70.1881 3.00607 0
70.7408 5.63722 0
69.4298 -2.62862 0
70.129 -1.48 0
69.8049 1.98497 0
69.1255 0.944812 0
74.6312 2.24068 0
73.7608 0.232693 0
73.8482 -0.00389123 0
73.66 0.306537 0
67.7458 0.491529 0
67.8241 -0.0195776 0
74.5813 -0.217064 0
74.7784 -1.16513 0
75.5058 0.363217 0
74.8183 0.0690223 0
68.8805 -0.67909 0
68.4946 -0.991156 0
69.0574 1.07061 0
68.2554 0.446977 0
67.8558 -0.0942869 0
68.2011 -0.551195 0
67.9559 0.173152 0
67.8271 0.0458704 0
65.8084 1.01299 0
67.5864 0.816051 0
74.502 -1.62338 0
76.7732 -2.99566 0
77.656 3.24918 0
74.487 1.32389 0
67.6981 -1.73233 0
66.3933 -2.12416 0
72.7524 0.1845 0
72.5042 1.3528 0
72.5078 -0.0240403 0
72.0611 0.519077 0
74.1202 -0.0591019 0
73.6033 -0.0345974 0
73.8676 -0.905376 0
73.3326 -0.00894878 0
73.9325 -0.206797 0
73.7015 -0.358919 0
74.3512 0.652883 0
74.0303 0.00563704 0
67.8421 0.045157 0
67.8547 0.242354 0
67.2345 0.0843447 0
65.9748 0.397047 0
67.8887 -0.274544 0
67.8124 -0.135186 0
67.7215 -0.000670044 0
67.7733 -0.731443 0
77.1594 -0.449593 0
75.6665 -0.687608 0
76.9638 0.780941 0
78.2424 -0.689536 0
68.0216 -0.0460363 0
68.1605 -0.277849 0
67.8509 0.027525 0
68.2937 0.162495 0
73.6428 -0.0364297 0
73.767 -0.0095246 0
73.4629 0.608348 0
72.9248 0.146403 0
72.6619 -0.154449 0
72.5873 -0.578126 0
73.0897 -1.37899 0
72.9046 -0.262576 0
68.5672 -0.667755 0
69.4368 -1.45576 0
68.7982 0.974192 0
68.47 0.754199 0
69.1625 1.8007 0
67.956 1.05663 0
68.4107 -1.40146 0
69.0404 -1.90691 0
75.9539 -0.110092 0
76.201 0.18955 0
75.9205 -2.23439 0
76.4138 -0.697184 0
67.9955 -0.963471 0
68.0994 -1.09406 0
67.9988 0.619641 0
67.7637 0.694038 0
72.9573 -0.875515 0
72.9713 -0.141643 0
72.3559 -0.184757 0
72.404 -0.995532 0
73.5023 2.66876 0
75.0589 4.45855 0
74.7515 -4.68537 0
74.0301 -1.76408 0
66.8017 -2.46871 0
68.2783 -2.42897 0
73.1618 -1.69721 0
73.4473 -0.594095 0
72.4641 0.30513 0
74.6797 1.80982 0
66.4233 3.05171 0
67.4996 1.65232 0
73.4749 -0.025026 0
73.9171 -0.200545 0
72.5715 0.380829 0
72.5979 0.0781328 0
75.169 -0.15217 0
75.1826 -0.666051 0
75.9358 0.944658 0
75.2162 0.138844 0
72.0198 0.915139 0
70.722 0.230655 0
71.6263 -0.211006 0
72.1383 -1.79487 0
75.4221 0.447884 0
75.7628 0.978053 0
74.0995 -1.53811 0
75.2946 -0.983651 0
71.546 -2.29907 0
72.1418 -1.0382 0
71.5654 1.73374 0
73.5255 3.82007 0
73.4153 -0.132974 0
73.0366 -0.000197934 0
72.1331 -0.164368 0
71.76 -0.185286 0
73.078 -0.30804 0
73.227 -0.00723198 0
72.4395 -0.0109356 0
72.5448 -0.404443 0
69.6028 0.313335 0
69.4364 0.801357 0
69.8108 -0.742093 0
70.4231 -0.226349 0
70.8312 1.82185 0
69.6105 1.20754 0
69.3834 -1.88782 0
68.755 -1.99431 0
75.7093 -0.145822 0
75.6138 -0.0802075 0
75.903 -0.0155903 0
76.1835 -0.314444 0
69.6919 2.46072 0
69.9909 1.64827 0
69.2606 -0.56342 0
69.1096 -0.215899 0
68.8622 0.164055 0
69.4315 0.539675 0
67.366 -0.828272 0
67.9417 -1.09583 0
77.1514 -1.08137 0
75.8191 -0.835286 0
76.2376 2.03569 0
78.3311 1.41989 0
68.0149 -0.708768 0
67.8362 -0.0887525 0
67.8077 0.0739096 0
68.0372 0.509526 0
68.2269 0.052537 0
68.2676 0.390428 0
68.45 -0.250605 0
68.5936 -0.0105714 0
66.7506 -0.402689 0
65.1815 -0.0560805 0
73.4304 2.02213 0
76.0855 1.56495 0
74.8732 -1.20629 0
75.4667 -2.45404 0
67.9867 1.20585 0
67.6574 0.573425 0
67.7988 -0.0320527 0
67.8385 -0.172004 0
70.3838 4.49816 0
68.648 2.59559 0
70.136 -2.74834 0
69.7911 -5.21829 0
67.7154 0.36854 0
67.8607 0.17957 0
74.3854 0.882819 0
74.9954 2.01049 0
73.4875 0.0253996 0
73.9033 -0.155048 0
72.3793 -0.234398 0
72.7408 -0.145052 0
72.6386 -0.0658092 0
73.0761 -0.508032 0
77.3236 -1.66522 0
77.2095 -0.0901288 0
76.1976 -0.0608645 0
76.5173 0.0137706 0